 Entering Gaussian System, Link 0=g09
 Initial command:
 /home/huangdeqing/softwares/g09-D01/g09/l1.exe "/home/huangdeqing/Gauss_scrdir/Gau-73451.inp" -scrdir="/home/huangdeqing/Gauss_scrdir/"
 Entering Link 1 = /home/huangdeqing/softwares/g09-D01/g09/l1.exe PID=     73452.
  
 Copyright (c) 1988,1990,1992,1993,1995,1998,2003,2009,2013,
            Gaussian, Inc.  All Rights Reserved.
  
 This is part of the Gaussian(R) 09 program.  It is based on
 the Gaussian(R) 03 system (copyright 2003, Gaussian, Inc.),
 the Gaussian(R) 98 system (copyright 1998, Gaussian, Inc.),
 the Gaussian(R) 94 system (copyright 1995, Gaussian, Inc.),
 the Gaussian 92(TM) system (copyright 1992, Gaussian, Inc.),
 the Gaussian 90(TM) system (copyright 1990, Gaussian, Inc.),
 the Gaussian 88(TM) system (copyright 1988, Gaussian, Inc.),
 the Gaussian 86(TM) system (copyright 1986, Carnegie Mellon
 University), and the Gaussian 82(TM) system (copyright 1983,
 Carnegie Mellon University). Gaussian is a federally registered
 trademark of Gaussian, Inc.
  
 This software contains proprietary and confidential information,
 including trade secrets, belonging to Gaussian, Inc.
  
 This software is provided under written license and may be
 used, copied, transmitted, or stored only in accord with that
 written license.
  
 The following legend is applicable only to US Government
 contracts under FAR:
  
                    RESTRICTED RIGHTS LEGEND
  
 Use, reproduction and disclosure by the US Government is
 subject to restrictions as set forth in subparagraphs (a)
 and (c) of the Commercial Computer Software - Restricted
 Rights clause in FAR 52.227-19.
  
 Gaussian, Inc.
 340 Quinnipiac St., Bldg. 40, Wallingford CT 06492
  
  
 ---------------------------------------------------------------
 Warning -- This program may not be used in any manner that
 competes with the business of Gaussian, Inc. or will provide
 assistance to any competitor of Gaussian, Inc.  The licensee
 of this program is prohibited from giving any competitor of
 Gaussian, Inc. access to this program.  By using this program,
 the user acknowledges that Gaussian, Inc. is engaged in the
 business of creating and licensing software in the field of
 computational chemistry and represents and warrants to the
 licensee that it is not a competitor of Gaussian, Inc. and that
 it will not use this program in any manner prohibited above.
 ---------------------------------------------------------------
  

 Cite this work as:
 Gaussian 09, Revision D.01,
 M. J. Frisch, G. W. Trucks, H. B. Schlegel, G. E. Scuseria, 
 M. A. Robb, J. R. Cheeseman, G. Scalmani, V. Barone, B. Mennucci, 
 G. A. Petersson, H. Nakatsuji, M. Caricato, X. Li, H. P. Hratchian, 
 A. F. Izmaylov, J. Bloino, G. Zheng, J. L. Sonnenberg, M. Hada, 
 M. Ehara, K. Toyota, R. Fukuda, J. Hasegawa, M. Ishida, T. Nakajima, 
 Y. Honda, O. Kitao, H. Nakai, T. Vreven, J. A. Montgomery, Jr., 
 J. E. Peralta, F. Ogliaro, M. Bearpark, J. J. Heyd, E. Brothers, 
 K. N. Kudin, V. N. Staroverov, T. Keith, R. Kobayashi, J. Normand, 
 K. Raghavachari, A. Rendell, J. C. Burant, S. S. Iyengar, J. Tomasi, 
 M. Cossi, N. Rega, J. M. Millam, M. Klene, J. E. Knox, J. B. Cross, 
 V. Bakken, C. Adamo, J. Jaramillo, R. Gomperts, R. E. Stratmann, 
 O. Yazyev, A. J. Austin, R. Cammi, C. Pomelli, J. W. Ochterski, 
 R. L. Martin, K. Morokuma, V. G. Zakrzewski, G. A. Voth, 
 P. Salvador, J. J. Dannenberg, S. Dapprich, A. D. Daniels, 
 O. Farkas, J. B. Foresman, J. V. Ortiz, J. Cioslowski, 
 and D. J. Fox, Gaussian, Inc., Wallingford CT, 2013.
 
 ******************************************
 Gaussian 09:  ES64L-G09RevD.01 24-Apr-2013
                 6-Jan-2026 
 ******************************************
 %nprocshared=5
 Will use up to    5 processors via shared memory.
 %mem=5GB
 %chk=/data/huangdeqing/azm/QM/nn/S0_cis/chk/+40.chk
 ----------------------------------------------------------------------
 #p opt=(calcfc,MaxStep=5,MaxCycles=20,tight,gdiis) freq=(HPModes,SaveN
 ormalModes) scf=tight Pop=Full casscf(6,4)/6-31+g(d) geom=connectivity
  nosymm field=y+40
 ----------------------------------------------------------------------

 Warning!  Use of Opt=GDIIS is deprecated since it is seldom a good choice.

 1/6=20,7=10,8=5,10=4,18=20,19=11,38=1,57=2/1,3;
 2/9=110,12=2,15=1,17=6,18=5,40=1/2;
 3/5=1,6=6,7=11,14=2,15=40,16=1,25=1,32=1,71=2,116=101,140=1/1,2,3;
 4/17=6,18=4/1,5;
 5/5=2,17=1000200,32=2,38=5/10;
 8/6=4,10=90,11=11/1;
 11/31=1,42=1,45=1/1;
 10/6=1,13=1,31=1/3;
 6/7=3,28=1/1;
 7/10=1,18=20,25=1,30=1,92=1/1,2,3,16;
 1/6=20,7=10,8=5,10=4,18=20,19=11/3(2);
 2/9=110,15=1/2;
 99//99;
 2/9=110,15=1/2;
 3/5=1,6=6,7=11,14=2,15=40,16=1,25=1,32=1,71=1,116=101/1,2,3;
 4/5=5,16=3,17=6,18=4,69=1/1,5;
 5/5=2,17=1000000,23=1,32=2,38=5/10;
 7/30=1,92=1/1,2,3,16;
 1/6=20,7=10,8=5,18=20,19=11/3(-5);
 2/9=110,15=1/2;
 6/7=3,19=2,28=1/1;
 99/9=1/99;
 Leave Link    1 at Tue Jan  6 12:44:59 2026, MaxMem=   671088640 cpu:         0.3
 (Enter /home/huangdeqing/softwares/g09-D01/g09/l101.exe)
 -------------
 S0_cis_nn_+40
 -------------
 Symbolic Z-matrix:
 Charge =  0 Multiplicity = 1
 N                    -0.60157  -0.71177   1.07108 
 N                     0.63847  -0.71177   1.07108 
 C                     1.37993   0.        0.02732 
 H                     2.4029   -0.50169  -0.0284 
 H                     0.85722  -0.02415  -1.01242 
 H                     1.50863   1.10579   0.38691 
 C                    -1.34448  -0.02936   0.00638 
 H                    -0.86419   0.99695  -0.25575 
 H                    -1.3495   -0.70198  -0.93086 
 H                    -2.40919   0.0989    0.39998 
 
 NAtoms=     10 NQM=       10 NQMF=       0 NMMI=      0 NMMIF=      0
                NMic=       0 NMicF=      0.
                    Isotopes and Nuclear Properties:
 (Nuclear quadrupole moments (NQMom) in fm**2, nuclear magnetic moments (NMagM)
  in nuclear magnetons)

  Atom         1           2           3           4           5           6           7           8           9          10
 IAtWgt=          14          14          12           1           1           1          12           1           1           1
 AtmWgt=  14.0030740  14.0030740  12.0000000   1.0078250   1.0078250   1.0078250  12.0000000   1.0078250   1.0078250   1.0078250
 NucSpn=           2           2           0           1           1           1           0           1           1           1
 AtZEff=   0.0000000   0.0000000   0.0000000   0.0000000   0.0000000   0.0000000   0.0000000   0.0000000   0.0000000   0.0000000
 NQMom=    2.0440000   2.0440000   0.0000000   0.0000000   0.0000000   0.0000000   0.0000000   0.0000000   0.0000000   0.0000000
 NMagM=    0.4037610   0.4037610   0.0000000   2.7928460   2.7928460   2.7928460   0.0000000   2.7928460   2.7928460   2.7928460
 AtZNuc=   7.0000000   7.0000000   6.0000000   1.0000000   1.0000000   1.0000000   6.0000000   1.0000000   1.0000000   1.0000000
 Leave Link  101 at Tue Jan  6 12:44:59 2026, MaxMem=   671088640 cpu:         1.1
 (Enter /home/huangdeqing/softwares/g09-D01/g09/l103.exe)

 GradGradGradGradGradGradGradGradGradGradGradGradGradGradGradGradGradGrad
 Berny optimization.
 Initialization pass.
                           ----------------------------
                           !    Initial Parameters    !
                           ! (Angstroms and Degrees)  !
 --------------------------                            --------------------------
 ! Name  Definition              Value          Derivative Info.                !
 --------------------------------------------------------------------------------
 ! R1    R(1,2)                  1.24           calculate D2E/DX2 analytically  !
 ! R2    R(1,7)                  1.4667         calculate D2E/DX2 analytically  !
 ! R3    R(2,3)                  1.4649         calculate D2E/DX2 analytically  !
 ! R4    R(3,4)                  1.1407         calculate D2E/DX2 analytically  !
 ! R5    R(3,5)                  1.164          calculate D2E/DX2 analytically  !
 ! R6    R(3,6)                  1.1699         calculate D2E/DX2 analytically  !
 ! R7    R(7,8)                  1.1631         calculate D2E/DX2 analytically  !
 ! R8    R(7,9)                  1.1536         calculate D2E/DX2 analytically  !
 ! R9    R(7,10)                 1.1424         calculate D2E/DX2 analytically  !
 ! A1    A(2,1,7)              120.4324         calculate D2E/DX2 analytically  !
 ! A2    A(1,2,3)              120.409          calculate D2E/DX2 analytically  !
 ! A3    A(2,3,4)              105.9634         calculate D2E/DX2 analytically  !
 ! A4    A(2,3,5)              113.521          calculate D2E/DX2 analytically  !
 ! A5    A(2,3,6)              107.2147         calculate D2E/DX2 analytically  !
 ! A6    A(4,3,5)              110.4842         calculate D2E/DX2 analytically  !
 ! A7    A(4,3,6)              109.394          calculate D2E/DX2 analytically  !
 ! A8    A(5,3,6)              110.0947         calculate D2E/DX2 analytically  !
 ! A9    A(1,7,8)              111.4081         calculate D2E/DX2 analytically  !
 ! A10   A(1,7,9)              108.7047         calculate D2E/DX2 analytically  !
 ! A11   A(1,7,10)             105.9152         calculate D2E/DX2 analytically  !
 ! A12   A(8,7,9)              109.4621         calculate D2E/DX2 analytically  !
 ! A13   A(8,7,10)             111.313          calculate D2E/DX2 analytically  !
 ! A14   A(9,7,10)             109.9577         calculate D2E/DX2 analytically  !
 ! D1    D(7,1,2,3)              1.6339         calculate D2E/DX2 analytically  !
 ! D2    D(2,1,7,8)            -41.8627         calculate D2E/DX2 analytically  !
 ! D3    D(2,1,7,9)             78.8391         calculate D2E/DX2 analytically  !
 ! D4    D(2,1,7,10)          -163.0444         calculate D2E/DX2 analytically  !
 ! D5    D(1,2,3,4)           -156.0116         calculate D2E/DX2 analytically  !
 ! D6    D(1,2,3,5)            -34.5805         calculate D2E/DX2 analytically  !
 ! D7    D(1,2,3,6)             87.2314         calculate D2E/DX2 analytically  !
 --------------------------------------------------------------------------------
 Trust Radius=5.00D-02 FncErr=1.00D-07 GrdErr=1.00D-07
 Number of steps in this run=     20 maximum allowed number of steps=    100.
 GradGradGradGradGradGradGradGradGradGradGradGradGradGradGradGradGradGrad

 Leave Link  103 at Tue Jan  6 12:44:59 2026, MaxMem=   671088640 cpu:         0.0
 (Enter /home/huangdeqing/softwares/g09-D01/g09/l202.exe)
                          Input orientation:                          
 ---------------------------------------------------------------------
 Center     Atomic      Atomic             Coordinates (Angstroms)
 Number     Number       Type             X           Y           Z
 ---------------------------------------------------------------------
      1          7           0       -0.601570   -0.711772    1.071080
      2          7           0        0.638466   -0.711772    1.071080
      3          6           0        1.379933    0.000000    0.027324
      4          1           0        2.402897   -0.501689   -0.028395
      5          1           0        0.857223   -0.024154   -1.012422
      6          1           0        1.508634    1.105792    0.386906
      7          6           0       -1.344479   -0.029362    0.006382
      8          1           0       -0.864192    0.996950   -0.255750
      9          1           0       -1.349502   -0.701980   -0.930865
     10          1           0       -2.409187    0.098897    0.399982
 ---------------------------------------------------------------------
                    Distance matrix (angstroms):
                    1          2          3          4          5
     1  N    0.000000
     2  N    1.240036   0.000000
     3  C    2.349979   1.464862   0.000000
     4  H    3.206214   2.089545   1.140724   0.000000
     5  H    2.634745   2.204916   1.163994   1.893530   0.000000
     6  H    2.867855   2.128103   1.169889   1.885783   1.912913
     7  C    1.466690   2.351879   2.724651   3.777185   2.426001
     8  H    2.179261   2.634045   2.471869   3.601594   2.139738
     9  H    2.137120   2.821329   2.976696   3.864592   2.309921
    10  H    2.091659   3.224244   3.808686   4.868302   3.560824
                    6          7          8          9         10
     6  H    0.000000
     7  C    3.094127   0.000000
     8  H    2.460722   1.163059   0.000000
     9  H    3.629531   1.153633   1.891472   0.000000
    10  H    4.045161   1.142355   1.903548   1.880289   0.000000
 Symmetry turned off by external request.
 Stoichiometry    C2H6N2
 Framework group  C1[X(C2H6N2)]
 Deg. of freedom    24
 Full point group                 C1      NOp   1
 Rotational constants (GHZ):     16.4356715      6.6310356      5.0671472
 Leave Link  202 at Tue Jan  6 12:44:59 2026, MaxMem=   671088640 cpu:         0.0
 (Enter /home/huangdeqing/softwares/g09-D01/g09/l301.exe)
 Standard basis: 6-31+G(d) (6D, 7F)
 Ernie: Thresh=  0.10000D-02 Tol=  0.10000D-05 Strict=F.
 The following finite field(s) will be applied:
 An electric field of              0.0000  0.0040  0.0000
    88 basis functions,   152 primitive gaussians,    88 cartesian basis functions
    16 alpha electrons       16 beta electrons
       nuclear repulsion energy       121.2863789626 Hartrees.
 IExCor=    0 DFT=F Ex=HF Corr=None ExCW=0 ScaHFX=  1.000000
 ScaDFX=  1.000000  1.000000  1.000000  1.000000 ScalE2=  1.000000  1.000000
 IRadAn=      0 IRanWt=     -1 IRanGd=            0 ICorTp=0 IEmpDi=  4
 NAtoms=   10 NActive=   10 NUniq=   10 SFac= 1.00D+00 NAtFMM=   60 NAOKFM=F Big=F
 Integral buffers will be    131072 words long.
 Regular integral format.
 Two-electron integral symmetry is turned off.
 Leave Link  301 at Tue Jan  6 12:44:59 2026, MaxMem=   671088640 cpu:         0.1
 (Enter /home/huangdeqing/softwares/g09-D01/g09/l302.exe)
 NPDir=0 NMtPBC=     1 NCelOv=     1 NCel=       1 NClECP=     1 NCelD=      1
         NCelK=      1 NCelE2=     1 NClLst=     1 CellRange=     0.0.
 One-electron integrals computed using PRISM.
 The smallest eigenvalue of the overlap matrix is  1.328D-04
 NBasis=    88 RedAO= F EigKep=  0.00D+00  NBF=    88
 NBsUse=    88 1.00D-04 EigRej=  0.00D+00 NBFU=    88
 Leave Link  302 at Tue Jan  6 12:44:59 2026, MaxMem=   671088640 cpu:         0.4
 (Enter /home/huangdeqing/softwares/g09-D01/g09/l303.exe)
 DipDrv:  MaxL=1.
 The nuclear repulsion energy is now       121.2170852365 hartrees.
 Leave Link  303 at Tue Jan  6 12:44:59 2026, MaxMem=   671088640 cpu:         0.1
 (Enter /home/huangdeqing/softwares/g09-D01/g09/l401.exe)
 ExpMin= 4.38D-02 ExpMax= 4.17D+03 ExpMxC= 6.27D+02 IAcc=2 IRadAn=         4 AccDes= 0.00D+00
 Harris functional with IExCor=  205 and IRadAn=       4 diagonalized for initial guess.
 HarFok:  IExCor=  205 AccDes= 0.00D+00 IRadAn=         4 IDoV= 1 UseB2=F ITyADJ=14
 ICtDFT=  3500011 ScaDFX=  1.000000  1.000000  1.000000  1.000000
 FoFCou: FMM=F IPFlag=           0 FMFlag=      100000 FMFlg1=           0
         NFxFlg=           0 DoJE=T BraDBF=F KetDBF=T FulRan=T
         wScrn=  0.000000 ICntrl=     500 IOpCl=  0 I1Cent=   200000004 NGrid=           0
         NMat0=    1 NMatS0=      1 NMatT0=    0 NMatD0=    1 NMtDS0=    0 NMtDT0=    0
 Symmetry not used in FoFCou.
 Harris En= -188.300710639162    
 JPrj=0 DoOrth=F DoCkMO=F.
 Leave Link  401 at Tue Jan  6 12:44:59 2026, MaxMem=   671088640 cpu:         0.6
 (Enter /home/huangdeqing/softwares/g09-D01/g09/l405.exe)
          Truncation Level=               99999
          a=  3          b=  0          c=  1
          a=N/2 - s   b=2s   c=n- (a+b)
          no. active orbitals (n)  4
          no. active ELECTRONS (N)=  6
                                                  IRREPS TO BE RETAINED = 1
                                                  GROUP IRREP. MULT. TABLE
                                                      1
                                                  IRREP. LABELS FOR ORBITALS
                                                   1 1 1 1
          BOTTOM WEIGHT= 12     TOP WEIGHT= 18
          Configuration         1 Symmetry 1 1110
          Configuration         2 Symmetry 1 11ab
          Configuration         3 Symmetry 1 1101
          Configuration         4 Symmetry 1 1a1b
          Configuration         5 Symmetry 1 1ab1
          Configuration         6 Symmetry 1 a11b
          Configuration         7 Symmetry 1 1011
          Configuration         8 Symmetry 1 a1b1
          Configuration         9 Symmetry 1 ab11
          Configuration        10 Symmetry 1 0111
          NO OF BASIS FUNCTIONS =        10 NO TO BE DELETED =    0
 CI Matrix Elements calculated here
          NO. OF CONFIGURATIONS IN REFERENCE SPACE =    1
                                   SECONDARY SPACE =   10
                                   TERTIARY SPACE =   10
          NO. OF ORBITALS =    4
          NO. OF ELECTRONS =    6
          NO. OF WEIGHTS =    7
          REFERENCE STATE CONFIGURATIONS ARE:     0
          NO. OF CORE ORBITALS =    0
          OPTION:  NON-DIAGONAL HOLE LINE INTERACTIONS INCLUDED
 Len28=        2263 LenMCI=         885.
 Leave Link  405 at Tue Jan  6 12:45:00 2026, MaxMem=   671088640 cpu:         4.1
 (Enter /home/huangdeqing/softwares/g09-D01/g09/l510.exe)
 Enter MCSCF program.
 NO. OF ORBITALS = 88     NO. OF CORE-ORBITALS = 13
 NO. OF VALENCE-ORBITALS =  4      NO. OF VIRTUAL-ORBITALS = 71
 USED ACCURACY IN CHECKING CONVERGENCE =  1.00D-08
  Memory needed for Incore Integrals:                15817494
  Memory needed for direct integral evaluation:                 6435759
  Integrals KEPT IN MEMORY
 IBUJAK length=                 2387044
 Integral file not found: evaluate integrals 
 FoFCou: FMM=F IPFlag=           0 FMFlag=           0 FMFlg1=           0
         NFxFlg=           0 DoJE=F BraDBF=F KetDBF=F FulRan=T
         wScrn=  0.000000 ICntrl=     600 IOpCl=  0 I1Cent=           0 NGrid=           0
         NMat0=    1 NMatS0=      1 NMatT0=    0 NMatD0=    1 NMtDS0=    0 NMtDT0=    0
 Symmetry not used in FoFCou.
 First order MCSCF but last itn is Quadratic
 Defining IBUGAM
 2ND ORD PT ENERGY     CV   -0.019412   CU   -0.161865   UV   -0.039718
 TOTAL                    -188.125927
 WARNING! : large rotation  I  J  =                       14
                       11
 Step scaled by    0.2576614916324573     
 ITN=  1 MaxIt= 64 E=   -187.9049330145 DE=-1.88D+02 Acc= 1.00D-08 Lan=  0
 WARNING! : large rotation  I  J  =                       16
                       14
 Step scaled by    0.7698273380491200     
 ITN=  2 MaxIt= 64 E=   -187.9928786385 DE=-8.79D-02 Acc= 1.00D-08 Lan=  0
 ITN=  3 MaxIt= 64 E=   -188.0528048028 DE=-5.99D-02 Acc= 1.00D-08 Lan=  0
 ITN=  4 MaxIt= 64 E=   -188.0635548357 DE=-1.08D-02 Acc= 1.00D-08 Lan=  0
 ITN=  5 MaxIt= 64 E=   -188.0689944881 DE=-5.44D-03 Acc= 1.00D-08 Lan=  0
 ITN=  6 MaxIt= 64 E=   -188.0707599446 DE=-1.77D-03 Acc= 1.00D-08 Lan=  0
 ITN=  7 MaxIt= 64 E=   -188.0718251950 DE=-1.07D-03 Acc= 1.00D-08 Lan=  0
 ITN=  8 MaxIt= 64 E=   -188.0722688768 DE=-4.44D-04 Acc= 1.00D-08 Lan=  0
 ITN=  9 MaxIt= 64 E=   -188.0724715356 DE=-2.03D-04 Acc= 1.00D-08 Lan=  0
 ITN= 10 MaxIt= 64 E=   -188.0725312429 DE=-5.97D-05 Acc= 1.00D-08 Lan=  0
 ITN= 11 MaxIt= 64 E=   -188.0725907189 DE=-5.95D-05 Acc= 1.00D-08 Lan=  0
 ITN= 12 MaxIt= 64 E=   -188.0726206543 DE=-2.99D-05 Acc= 1.00D-08 Lan=  0
 ITN= 13 MaxIt= 64 E=   -188.0726280877 DE=-7.43D-06 Acc= 1.00D-08 Lan=  0
 ITN= 14 MaxIt= 64 E=   -188.0726324735 DE=-4.39D-06 Acc= 1.00D-08 Lan=  0
 ITN= 15 MaxIt= 64 E=   -188.0726333255 DE=-8.52D-07 Acc= 1.00D-08 Lan=  0
 ITN= 16 MaxIt= 64 E=   -188.0726336902 DE=-3.65D-07 Acc= 1.00D-08 Lan=  0
 ITN= 17 MaxIt= 64 E=   -188.0726338889 DE=-1.99D-07 Acc= 1.00D-08 Lan=  0
 ITN= 18 MaxIt= 64 E=   -188.0726340040 DE=-1.15D-07 Acc= 1.00D-08 Lan=  0
 ITN= 19 MaxIt= 64 E=   -188.0726340721 DE=-6.82D-08 Acc= 1.00D-08 Lan=  0
 ITN= 20 MaxIt= 64 E=   -188.0726341129 DE=-4.08D-08 Acc= 1.00D-08 Lan=  0
 ITN= 21 MaxIt= 64 E=   -188.0726341374 DE=-2.45D-08 Acc= 1.00D-08 Lan=  0
 ITN= 22 MaxIt= 64 E=   -188.0726341522 DE=-1.48D-08 Acc= 1.00D-08 Lan=  0
 ITN= 23 MaxIt= 64 E=   -188.0726341612 DE=-8.95D-09 Acc= 1.00D-08 Lan=  0
 ... Do an extra-iteration for final printing.


                    EIGENVALUES AND  EIGENVECTORS OF CI MATRIX



   ( 1)     EIGENVALUE    -188.0726341666
 (    1) 0.9722195 (    7)-0.2266007 (    3)-0.0583646 (   10)-0.0059100 (    2)-0.0000223 (    9)-0.0000097 (    5)-0.0000076
 (    6)-0.0000006 (    4) 0.0000002 (    8)-0.0000002 (
 Final one electron symbolic density matrix:
                1             2             3             4 
      1  0.199993D+01
      2  0.638001D-05  0.189730D+01
      3 -0.277264D-07  0.614940D-05  0.199319D+01
      4 -0.164814D-05 -0.368779D-06 -0.576070D-04  0.109578D+00
 ***REDUNDANT VALENCE-CORE PARM** IU=           1
 ***REDUNDANT VALENCE-CORE PARM** IU=           3
 MCSCF converged.
 Leave Link  510 at Tue Jan  6 12:45:12 2026, MaxMem=   671088640 cpu:        57.6
 (Enter /home/huangdeqing/softwares/g09-D01/g09/l801.exe)
 Range of M.O.s used for correlation:     1    88
 NBasis=    88 NAE=    16 NBE=    16 NFC=     0 NFV=     0
 NROrb=     88 NOA=    16 NOB=    16 NVA=    72 NVB=    72

 **** Warning!!: The largest alpha MO coefficient is  0.36251858D+02

 Leave Link  801 at Tue Jan  6 12:45:13 2026, MaxMem=   671088640 cpu:         0.1
 (Enter /home/huangdeqing/softwares/g09-D01/g09/l1101.exe)
 Not using compressed storage, NAtomX=    10.
 Will process     10 centers per pass.
 Leave Link 1101 at Tue Jan  6 12:45:13 2026, MaxMem=   671088640 cpu:         0.7
 (Enter /home/huangdeqing/softwares/g09-D01/g09/l1003.exe)
 NO. OF ORBITALS         = 88      NO. OF CORE-ORBITALS    = 13
 NO. OF VALENCE-ORBITALS =  4      NO. OF VIRTUAL-ORBITALS = 71
 One call to fofjk will do it.
 FoFJK:  IHMeth= 0 ICntrl=    3500 DoSepK=F KAlg= 0 I1Cent=   0 FoldK=F
 IRaf=         0 NMat=   2 IRICut=       1 DoRegI=T DoRafI=F ISym2E= 0.
 FoFCou: FMM=F IPFlag=           0 FMFlag=      100000 FMFlg1=           0
         NFxFlg=           0 DoJE=F BraDBF=F KetDBF=F FulRan=T
         wScrn=  0.000000 ICntrl=    3500 IOpCl=  1 I1Cent=           0 NGrid=           0
         NMat0=    2 NMatS0=      2 NMatT0=    0 NMatD0=    2 NMtDS0=    0 NMtDT0=    0
 Symmetry not used in FoFCou.
 JobTyp= 0 Pass  1:  I=   1 to   4  IAt=   2 to  10.
 ***REDUNDANT VALENCE-CORE PARM** IU=         1
 ***REDUNDANT VALENCE-CORE PARM** IU=         3
 ***REDUNDANT VALENCE-CORE PARM** IU=         1
 ***REDUNDANT VALENCE-CORE PARM** IU=         3
 ***REDUNDANT VALENCE-CORE PARM** IU=         1
 ***REDUNDANT VALENCE-CORE PARM** IU=         3
 ***REDUNDANT VALENCE-CORE PARM** IU=         1
 ***REDUNDANT VALENCE-CORE PARM** IU=         3
 ***REDUNDANT VALENCE-CORE PARM** IU=         1
 ***REDUNDANT VALENCE-CORE PARM** IU=         3
 ***REDUNDANT VALENCE-CORE PARM** IU=         1
 ***REDUNDANT VALENCE-CORE PARM** IU=         3
 ***REDUNDANT VALENCE-CORE PARM** IU=         1
 ***REDUNDANT VALENCE-CORE PARM** IU=         3
 ***REDUNDANT VALENCE-CORE PARM** IU=         1
 ***REDUNDANT VALENCE-CORE PARM** IU=         3
 ***REDUNDANT VALENCE-CORE PARM** IU=         1
 ***REDUNDANT VALENCE-CORE PARM** IU=         3
 ***REDUNDANT VALENCE-CORE PARM** IU=         1
 ***REDUNDANT VALENCE-CORE PARM** IU=         3
 ***REDUNDANT VALENCE-CORE PARM** IU=         1
 ***REDUNDANT VALENCE-CORE PARM** IU=         3
 ***REDUNDANT VALENCE-CORE PARM** IU=         1
 ***REDUNDANT VALENCE-CORE PARM** IU=         3
 ***REDUNDANT VALENCE-CORE PARM** IU=         1
 ***REDUNDANT VALENCE-CORE PARM** IU=         3
 ***REDUNDANT VALENCE-CORE PARM** IU=         1
 ***REDUNDANT VALENCE-CORE PARM** IU=         3
 ***REDUNDANT VALENCE-CORE PARM** IU=         1
 ***REDUNDANT VALENCE-CORE PARM** IU=         3
 ***REDUNDANT VALENCE-CORE PARM** IU=         1
 ***REDUNDANT VALENCE-CORE PARM** IU=         3
 ***REDUNDANT VALENCE-CORE PARM** IU=         1
 ***REDUNDANT VALENCE-CORE PARM** IU=         3
 ***REDUNDANT VALENCE-CORE PARM** IU=         1
 ***REDUNDANT VALENCE-CORE PARM** IU=         3
 ***REDUNDANT VALENCE-CORE PARM** IU=         1
 ***REDUNDANT VALENCE-CORE PARM** IU=         3
 ***REDUNDANT VALENCE-CORE PARM** IU=         1
 ***REDUNDANT VALENCE-CORE PARM** IU=         3
 ***REDUNDANT VALENCE-CORE PARM** IU=         1
 ***REDUNDANT VALENCE-CORE PARM** IU=         3
 ***REDUNDANT VALENCE-CORE PARM** IU=         1
 ***REDUNDANT VALENCE-CORE PARM** IU=         3
 ***REDUNDANT VALENCE-CORE PARM** IU=         1
 ***REDUNDANT VALENCE-CORE PARM** IU=         3
 ***REDUNDANT VALENCE-CORE PARM** IU=         1
 ***REDUNDANT VALENCE-CORE PARM** IU=         3
 ***REDUNDANT VALENCE-CORE PARM** IU=         1
 ***REDUNDANT VALENCE-CORE PARM** IU=         3
 ***REDUNDANT VALENCE-CORE PARM** IU=         1
 ***REDUNDANT VALENCE-CORE PARM** IU=         3
 ***REDUNDANT VALENCE-CORE PARM** IU=         1
 ***REDUNDANT VALENCE-CORE PARM** IU=         3
 Leave Link 1003 at Tue Jan  6 12:45:16 2026, MaxMem=   671088640 cpu:        14.4
 (Enter /home/huangdeqing/softwares/g09-D01/g09/l601.exe)
 Copying SCF densities to generalized density rwf, IOpCl= 0 IROHF=3.

 **********************************************************************

            Population analysis using the SCF density.

 **********************************************************************

 Alpha  occ. eigenvalues --    0.00000   0.00000   0.00000   0.00000   0.00000
 Alpha  occ. eigenvalues --    0.00000   0.00000   0.00000   0.00000   0.00000
 Alpha  occ. eigenvalues --    0.00000   0.00000   0.00000   0.00000   0.00000
 Alpha  occ. eigenvalues --    0.00000
 Alpha virt. eigenvalues --    0.00000   0.00000   0.00000   0.00000   0.00000
 Alpha virt. eigenvalues --    0.00000   0.00000   0.00000   0.00000   0.00000
 Alpha virt. eigenvalues --    0.00000   0.00000   0.00000   0.00000   0.00000
 Alpha virt. eigenvalues --    0.00000   0.00000   0.00000   0.00000   0.00000
 Alpha virt. eigenvalues --    0.00000   0.00000   0.00000   0.00000   0.00000
 Alpha virt. eigenvalues --    0.00000   0.00000   0.00000   0.00000   0.00000
 Alpha virt. eigenvalues --    0.00000   0.00000   0.00000   0.00000   0.00000
 Alpha virt. eigenvalues --    0.00000   0.00000   0.00000   0.00000   0.00000
 Alpha virt. eigenvalues --    0.00000   0.00000   0.00000   0.00000   0.00000
 Alpha virt. eigenvalues --    0.00000   0.00000   0.00000   0.00000   0.00000
 Alpha virt. eigenvalues --    0.00000   0.00000   0.00000   0.00000   0.00000
 Alpha virt. eigenvalues --    0.00000   0.00000   0.00000   0.00000   0.00000
 Alpha virt. eigenvalues --    0.00000   0.00000   0.00000   0.00000   0.00000
 Alpha virt. eigenvalues --    0.00000   0.00000   0.00000   0.00000   0.00000
 Alpha virt. eigenvalues --    0.00000   0.00000
     Molecular Orbital Coefficients:
                           1         2         3         4         5
                           O         O         O         O         O
     Eigenvalues --     0.00000   0.00000   0.00000   0.00000   0.00000
   1 1   N  1S          0.30190  -0.95062  -0.00010   0.00002  -0.14673
   2        2S          0.00375  -0.01760   0.00021  -0.00014   0.30606
   3        2PX         0.00194  -0.01150   0.00000   0.00002   0.14757
   4        2PY         0.00169  -0.00328   0.00004  -0.00004   0.02858
   5        2PZ        -0.00245   0.00601  -0.00007   0.00003  -0.04320
   6        3S         -0.00863   0.01308   0.00143  -0.00015   0.24937
   7        3PX         0.00083  -0.00501  -0.00061   0.00048   0.03053
   8        3PY         0.00015  -0.00105   0.00068  -0.00010   0.01787
   9        3PZ        -0.00027   0.00081  -0.00108   0.00025  -0.02597
  10        4S          0.00700  -0.00999   0.01128  -0.00400  -0.04467
  11        4PX         0.00213  -0.00309  -0.00010  -0.00030  -0.00638
  12        4PY         0.00058  -0.00113   0.00166  -0.00098  -0.00692
  13        4PZ        -0.00096   0.00110  -0.00266   0.00142   0.01155
  14        5XX         0.00014   0.00204  -0.00015   0.00012   0.02182
  15        5YY        -0.00092   0.00347  -0.00006  -0.00005  -0.01131
  16        5ZZ        -0.00086   0.00304  -0.00019  -0.00001  -0.00790
  17        5XY        -0.00004  -0.00055   0.00015   0.00001   0.00220
  18        5XZ         0.00005   0.00080  -0.00021  -0.00001  -0.00310
  19        5YZ        -0.00013   0.00004   0.00017  -0.00008  -0.00394
  20 2   N  1S         -0.95063  -0.29945   0.00002  -0.00015  -0.14779
  21        2S         -0.01953  -0.00798  -0.00015   0.00025   0.30833
  22        2PX         0.00405   0.00709  -0.00007   0.00006  -0.14656
  23        2PY        -0.00266  -0.00459   0.00002   0.00003   0.03259
  24        2PZ         0.00429   0.00888  -0.00004  -0.00006  -0.04868
  25        3S          0.01076   0.00040  -0.00009   0.00143   0.25040
  26        3PX         0.00112   0.00425  -0.00049   0.00066  -0.03049
  27        3PY         0.00001  -0.00371  -0.00013   0.00070   0.02137
  28        3PZ         0.00013   0.00534   0.00013  -0.00100  -0.02929
  29        4S         -0.00786   0.00966  -0.00569   0.00948  -0.05641
  30        4PX         0.00253  -0.00197   0.00093   0.00069   0.00873
  31        4PY        -0.00087  -0.00019  -0.00094   0.00176  -0.00758
  32        4PZ         0.00132  -0.00058   0.00152  -0.00256   0.01193
  33        5XX         0.00195   0.00131   0.00010  -0.00016   0.02158
  34        5YY         0.00310   0.00143  -0.00008  -0.00006  -0.01111
  35        5ZZ         0.00290   0.00072  -0.00001  -0.00017  -0.00777
  36        5XY         0.00004   0.00036  -0.00001  -0.00013  -0.00194
  37        5XZ        -0.00004  -0.00038   0.00001   0.00021   0.00275
  38        5YZ         0.00021   0.00033  -0.00008   0.00018  -0.00446
  39 3   C  1S          0.00022   0.00058   0.00593   0.99591  -0.04218
  40        2S         -0.00082  -0.00130  -0.00008   0.02771   0.07835
  41        2PX         0.00001  -0.00156   0.00010  -0.00038  -0.03657
  42        2PY         0.00103   0.01068  -0.00007  -0.00019  -0.03368
  43        2PZ        -0.00026   0.00244  -0.00005   0.00044   0.03459
  44        3S         -0.00364  -0.00063   0.00119  -0.01535   0.03187
  45        3PX         0.00079  -0.00184  -0.00046   0.00093  -0.00015
  46        3PY         0.00110   0.00587  -0.00030   0.00051  -0.00356
  47        3PZ        -0.00100   0.00207   0.00045  -0.00122  -0.00459
  48        4S          0.00170   0.00065   0.00165  -0.00576   0.02572
  49        4PX        -0.00086  -0.00061  -0.00030   0.00118  -0.00995
  50        4PY        -0.00001   0.00048  -0.00008   0.00060  -0.00678
  51        4PZ         0.00004   0.00041   0.00011  -0.00103   0.00808
  52        5XX        -0.00010  -0.00088  -0.00003  -0.00153   0.00450
  53        5YY         0.00016   0.00085  -0.00016  -0.00157   0.00023
  54        5ZZ         0.00031   0.00013  -0.00012  -0.00155   0.00485
  55        5XY         0.00005   0.00014   0.00002  -0.00003   0.00530
  56        5XZ         0.00000   0.00026   0.00000  -0.00001  -0.00801
  57        5YZ        -0.00020   0.00033  -0.00003  -0.00002  -0.00578
  58 4   H  1S         -0.00069  -0.00490   0.00002   0.00017   0.01693
  59        2S         -0.00050  -0.00401   0.00028   0.00199   0.00630
  60 5   H  1S          0.00028  -0.00089  -0.00012   0.00015   0.01694
  61        2S          0.00085  -0.00014   0.00054   0.00219   0.00510
  62 6   H  1S          0.00049   0.00689  -0.00010   0.00013   0.00890
  63        2S          0.00080   0.00563  -0.00001   0.00236   0.00071
  64 7   C  1S         -0.00016  -0.00002   0.99591  -0.00606  -0.04077
  65        2S          0.00062   0.00011   0.02777  -0.00043   0.07525
  66        2PX         0.00045   0.00533   0.00036  -0.00011   0.03348
  67        2PY         0.00026   0.00676  -0.00033   0.00001  -0.02909
  68        2PZ         0.00074   0.00532   0.00030  -0.00005   0.03190
  69        3S          0.00256  -0.00322  -0.01555   0.00137   0.02952
  70        3PX         0.00075   0.00162  -0.00107   0.00049  -0.00072
  71        3PY        -0.00039   0.00424   0.00078  -0.00041  -0.00093
  72        3PZ         0.00126   0.00233  -0.00099   0.00033  -0.00513
  73        4S         -0.00128   0.00078  -0.00563   0.00197   0.02599
  74        4PX        -0.00056   0.00077  -0.00120   0.00041   0.01000
  75        4PY        -0.00006   0.00013   0.00067  -0.00016  -0.00542
  76        4PZ         0.00012   0.00054  -0.00090   0.00017   0.00860
  77        5XX         0.00009  -0.00020  -0.00154  -0.00003   0.00381
  78        5YY        -0.00001   0.00056  -0.00158  -0.00012   0.00049
  79        5ZZ        -0.00013   0.00013  -0.00154  -0.00011   0.00513
  80        5XY         0.00001   0.00032  -0.00001   0.00001  -0.00522
  81        5XZ        -0.00002   0.00014  -0.00002   0.00002   0.00793
  82        5YZ         0.00010  -0.00101   0.00001  -0.00002  -0.00466
  83 8   H  1S          0.00015   0.00563   0.00011  -0.00015   0.01161
  84        2S         -0.00003   0.00593   0.00227   0.00046   0.00097
  85 9   H  1S         -0.00042  -0.00530   0.00020  -0.00003   0.01930
  86        2S         -0.00049  -0.00363   0.00247  -0.00017   0.00866
  87 10  H  1S          0.00024  -0.00216   0.00017  -0.00003   0.01360
  88        2S          0.00015  -0.00254   0.00200   0.00025   0.00423
                           6         7         8         9        10
                           O         O         O         O         O
     Eigenvalues --     0.00000   0.00000   0.00000   0.00000   0.00000
   1 1   N  1S         -0.02044   0.03888  -0.04290  -0.02687   0.01244
   2        2S          0.04021  -0.08357   0.08799   0.05502  -0.03346
   3        2PX        -0.04670  -0.17170  -0.06047  -0.27175  -0.05400
   4        2PY         0.08518   0.04863   0.13195   0.01812   0.15912
   5        2PZ        -0.13297  -0.07588  -0.21003  -0.03087  -0.24171
   6        3S         -0.00501  -0.08819   0.10484   0.12309  -0.03435
   7        3PX         0.01622  -0.05375   0.01245  -0.12070  -0.01344
   8        3PY         0.04429   0.00831   0.10902   0.01055   0.08170
   9        3PZ        -0.06664  -0.01389  -0.15780  -0.01570  -0.12748
  10        4S         -0.07847  -0.01127  -0.02455  -0.02613  -0.00828
  11        4PX         0.01415   0.01345   0.04002   0.02764  -0.00103
  12        4PY        -0.00903  -0.00171  -0.00077  -0.00192  -0.00667
  13        4PZ         0.01296   0.00312   0.00515   0.00956   0.00210
  14        5XX        -0.00398  -0.01522  -0.00905  -0.01256  -0.01266
  15        5YY         0.00081   0.00760  -0.00243   0.00349   0.00241
  16        5ZZ         0.01089   0.01303   0.01191   0.00715   0.01242
  17        5XY        -0.00645  -0.00210  -0.00892  -0.00678   0.00754
  18        5XZ         0.00984   0.00297   0.01405   0.00994  -0.01125
  19        5YZ        -0.01199  -0.00731  -0.01360  -0.00288  -0.01534
  20 2   N  1S          0.03340   0.03090   0.03932  -0.02907   0.01501
  21        2S         -0.06828  -0.06758  -0.08017   0.05945  -0.03872
  22        2PX        -0.01883   0.18168  -0.02897   0.27404   0.05121
  23        2PY        -0.05911   0.07212  -0.15413   0.02809   0.15301
  24        2PZ         0.08600  -0.10738   0.21630  -0.04334  -0.23059
  25        3S         -0.03403  -0.08346  -0.08551   0.12847  -0.04279
  26        3PX         0.01732   0.04774   0.03106   0.11728   0.01618
  27        3PY        -0.03155   0.01948  -0.10902   0.01872   0.07646
  28        3PZ         0.04963  -0.03152   0.17170  -0.02414  -0.11934
  29        4S          0.07209  -0.02292   0.03042  -0.01696   0.00157
  30        4PX         0.00868  -0.01975   0.04323  -0.03214  -0.00085
  31        4PY         0.00925  -0.00487   0.00826  -0.00406  -0.00186
  32        4PZ        -0.01176   0.00568   0.00113   0.00541   0.00609
  33        5XX         0.00060  -0.01596   0.00761  -0.01303  -0.01233
  34        5YY        -0.00034   0.00799  -0.00138   0.00373   0.00251
  35        5ZZ        -0.00580   0.01529  -0.00696   0.00742   0.01199
  36        5XY        -0.00681   0.00398  -0.00875   0.00672  -0.00733
  37        5XZ         0.01016  -0.00601   0.01171  -0.01097   0.01230
  38        5YZ         0.00915  -0.01057   0.01605  -0.00397  -0.01457
  39 3   C  1S          0.11810  -0.14315  -0.00830   0.01109   0.01953
  40        2S         -0.22131   0.26683   0.00547  -0.01250  -0.03456
  41        2PX        -0.00090  -0.00014   0.12924   0.06323  -0.23214
  42        2PY        -0.00315   0.00167   0.04342  -0.15935  -0.02451
  43        2PZ        -0.02836   0.00524  -0.27919   0.19672   0.07863
  44        3S         -0.24952   0.30676   0.04770  -0.05866  -0.07061
  45        3PX         0.00009  -0.00959   0.05734   0.05499  -0.12249
  46        3PY        -0.00600   0.00777   0.00977  -0.07645   0.00107
  47        3PZ        -0.00883   0.00185  -0.13184   0.08233   0.02276
  48        4S         -0.04197   0.02308  -0.01548   0.01082  -0.00980
  49        4PX         0.00783   0.00027   0.00581   0.00681  -0.00464
  50        4PY         0.00636  -0.00060   0.00999  -0.01029   0.00389
  51        4PZ        -0.00995   0.00387  -0.02097   0.00894  -0.00420
  52        5XX        -0.00559   0.00449   0.00211   0.00205  -0.00680
  53        5YY        -0.00591   0.00590  -0.00406  -0.00077  -0.00518
  54        5ZZ        -0.00342   0.00591   0.00428  -0.00262   0.00764
  55        5XY        -0.00024  -0.00184  -0.01366  -0.00002   0.01585
  56        5XZ         0.00219   0.00211   0.02362  -0.01676  -0.00960
  57        5YZ        -0.00086   0.00066   0.00876  -0.01362  -0.00885
  58 4   H  1S         -0.07754   0.09252   0.07338   0.05418  -0.13843
  59        2S         -0.02271   0.02577   0.02770   0.03366  -0.07817
  60 5   H  1S         -0.05741   0.09503   0.14089  -0.13440   0.00279
  61        2S         -0.00267   0.02083   0.12292  -0.08358  -0.00176
  62 6   H  1S         -0.08529   0.09542  -0.01096  -0.06548  -0.03400
  63        2S         -0.02953   0.02423  -0.01833  -0.04076  -0.01808
  64 7   C  1S         -0.15610  -0.10183   0.00907   0.00922   0.02083
  65        2S          0.29235   0.18899  -0.00735  -0.00931  -0.03669
  66        2PX        -0.00530   0.00306   0.14425  -0.07625   0.24139
  67        2PY        -0.02530   0.00531  -0.20349  -0.14874  -0.02578
  68        2PZ         0.01028  -0.00076   0.16665   0.18629   0.09130
  69        3S          0.33065   0.21987  -0.04807  -0.05333  -0.07478
  70        3PX         0.00004   0.01271   0.06785  -0.06032   0.12387
  71        3PY        -0.00755   0.00257  -0.09606  -0.06283  -0.00178
  72        3PZ         0.00003  -0.00409   0.06896   0.08210   0.03009
  73        4S          0.04590   0.01265   0.01147   0.01261  -0.01470
  74        4PX         0.00627  -0.00079   0.00581  -0.00603   0.00232
  75        4PY        -0.00652  -0.00026  -0.01583  -0.00641   0.00291
  76        4PZ         0.01026  -0.00046   0.01565   0.00992  -0.00372
  77        5XX         0.00856   0.00255  -0.00141   0.00276  -0.00679
  78        5YY         0.00456   0.00466  -0.00952  -0.01184   0.00155
  79        5ZZ         0.00619   0.00390   0.00827   0.00828   0.00085
  80        5XY        -0.00177   0.00202  -0.01587  -0.01364  -0.00372
  81        5XZ         0.00014  -0.00264   0.01936   0.00539   0.01894
  82        5YZ         0.00212   0.00009  -0.00763  -0.00849  -0.01313
  83 8   H  1S          0.08105   0.07533  -0.12106  -0.13833   0.01541
  84        2S          0.00593   0.01974  -0.10735  -0.09308   0.01307
  85 9   H  1S          0.10667   0.06523  -0.02028  -0.04716  -0.05935
  86        2S          0.02846   0.01171  -0.00899  -0.01960  -0.03778
  87 10  H  1S          0.10957   0.06430  -0.06959   0.05546  -0.13656
  88        2S          0.03871   0.01818  -0.02571   0.03375  -0.07860
                          11        12        13        14        15
                           O         O         O         O         O
     Eigenvalues --     0.00000   0.00000   0.00000   0.00000   0.00000
   1 1   N  1S         -0.00860   0.00055   0.00609  -0.00028  -0.00174
   2        2S          0.02012  -0.00211  -0.01402   0.09062   0.00289
   3        2PX        -0.19193   0.00964   0.03832  -0.20576  -0.00005
   4        2PY        -0.14218   0.04634   0.02004  -0.03729   0.35740
   5        2PZ         0.20305   0.02718  -0.02308   0.08095   0.23641
   6        3S          0.08454  -0.00001  -0.03673   0.15128   0.01334
   7        3PX        -0.12011   0.00849   0.04044  -0.11267   0.00464
   8        3PY        -0.08828   0.01535   0.01027  -0.03402   0.23337
   9        3PZ         0.14826   0.00963  -0.02301   0.03505   0.15279
  10        4S          0.14986   0.01457   0.05345  -0.11049  -0.07336
  11        4PX         0.02379   0.00203   0.06481  -0.03282  -0.03479
  12        4PY         0.00152  -0.02047  -0.01757  -0.01259   0.01358
  13        4PZ         0.00917  -0.00942   0.02180   0.00260   0.00030
  14        5XX        -0.00612   0.00156   0.01157  -0.01131  -0.00070
  15        5YY         0.00286   0.00567  -0.00378   0.00892   0.01214
  16        5ZZ         0.00070  -0.00818  -0.00621   0.00154  -0.01220
  17        5XY        -0.00559  -0.00339   0.00015  -0.01191   0.03000
  18        5XZ         0.00975  -0.00384  -0.00188   0.01765   0.01930
  19        5YZ         0.01121  -0.00390   0.00110  -0.00235  -0.00565
  20 2   N  1S         -0.03297  -0.00023   0.00660   0.00084   0.00340
  21        2S          0.07197  -0.00056  -0.01435   0.03553  -0.00753
  22        2PX         0.20519  -0.00947  -0.08367   0.17725  -0.00387
  23        2PY        -0.04844  -0.03237   0.04451  -0.11468   0.36193
  24        2PZ         0.04796  -0.03877  -0.05304   0.21974   0.22980
  25        3S          0.14022   0.00038  -0.02974   0.09514  -0.01966
  26        3PX         0.12072  -0.00494  -0.03252   0.11739   0.00227
  27        3PY        -0.01513  -0.01202   0.02079  -0.09355   0.23493
  28        3PZ         0.03380  -0.02079  -0.03455   0.13725   0.14878
  29        4S         -0.09317  -0.02422  -0.07202   0.14614   0.08924
  30        4PX         0.04826   0.01239   0.05984  -0.02257  -0.03677
  31        4PY         0.00741   0.01311   0.01232  -0.00608   0.00778
  32        4PZ         0.00701   0.01376  -0.02627  -0.00746   0.00908
  33        5XX        -0.01586   0.00096  -0.00479  -0.00670   0.00056
  34        5YY         0.00260  -0.00675   0.00190   0.01005   0.01201
  35        5ZZ         0.01220   0.00486   0.00215  -0.00655  -0.01189
  36        5XY         0.01000  -0.00442  -0.00342   0.00800  -0.03000
  37        5XZ        -0.01648  -0.00212   0.00735  -0.00829  -0.01951
  38        5YZ        -0.00052   0.00158  -0.00467   0.00782  -0.00629
  39 3   C  1S          0.00208  -0.00127  -0.01292   0.01430  -0.00068
  40        2S          0.00128   0.00191   0.02121  -0.03372   0.00266
  41        2PX        -0.25184   0.01252  -0.21342  -0.03651   0.00076
  42        2PY        -0.13366  -0.22393   0.14939   0.24331  -0.02166
  43        2PZ        -0.14373  -0.14246  -0.08118   0.05246  -0.01179
  44        3S         -0.02849   0.00990   0.03044  -0.03034  -0.00291
  45        3PX        -0.13867   0.00034  -0.13779  -0.04060  -0.00266
  46        3PY        -0.06741  -0.12663   0.09079   0.14140  -0.01894
  47        3PZ        -0.09167  -0.08545  -0.05211   0.03472  -0.01201
  48        4S         -0.02744  -0.00755  -0.03892   0.02190   0.01491
  49        4PX        -0.00871   0.00183  -0.00342  -0.01618  -0.00489
  50        4PY        -0.00502  -0.00919   0.01668   0.01364  -0.00555
  51        4PZ        -0.00894  -0.00960  -0.01651   0.00580   0.00133
  52        5XX        -0.00983   0.01185  -0.01377  -0.02199   0.00273
  53        5YY        -0.01555  -0.01765   0.00272   0.01735  -0.01384
  54        5ZZ         0.02534   0.00446   0.01219   0.00259   0.01141
  55        5XY         0.00768  -0.00655   0.01337   0.00341  -0.00799
  56        5XZ         0.01019   0.00448   0.00625   0.00673  -0.00403
  57        5YZ        -0.01286  -0.00923   0.00468   0.00688   0.00283
  58 4   H  1S         -0.11692   0.07736  -0.15367  -0.11567   0.01848
  59        2S         -0.10000   0.06345  -0.11788  -0.09570   0.03619
  60 5   H  1S          0.17720   0.07815   0.10548  -0.01769   0.02460
  61        2S          0.16368   0.06049   0.08842  -0.00529   0.03709
  62 6   H  1S         -0.13459  -0.16718   0.07137   0.15506  -0.04446
  63        2S         -0.11137  -0.13800   0.05058   0.12357  -0.07099
  64 7   C  1S          0.01096   0.00010   0.00842  -0.00344   0.00052
  65        2S         -0.02754  -0.00166  -0.01245   0.01207  -0.00148
  66        2PX         0.00010  -0.02149  -0.28875   0.12394  -0.00032
  67        2PY        -0.06681   0.28846  -0.05840   0.14944  -0.01989
  68        2PZ        -0.13568   0.19216   0.18329   0.12713  -0.01571
  69        3S         -0.01862   0.00195  -0.01457  -0.01630  -0.00082
  70        3PX         0.01966  -0.00942  -0.18004   0.05520  -0.00561
  71        3PY        -0.04482   0.16503  -0.03261   0.08739  -0.02025
  72        3PZ        -0.07606   0.11455   0.11466   0.06493  -0.01596
  73        4S          0.02173   0.00281   0.03936  -0.00585  -0.02482
  74        4PX         0.01475  -0.00208  -0.01017   0.00484  -0.00783
  75        4PY        -0.00543   0.01364  -0.00858   0.00411  -0.00064
  76        4PZ        -0.00570   0.00951   0.02321   0.00906  -0.00750
  77        5XX        -0.01550   0.01343   0.02533  -0.00504  -0.00209
  78        5YY         0.00372   0.00177  -0.02052   0.00968  -0.01047
  79        5ZZ         0.00922  -0.01601  -0.00543  -0.00296   0.01233
  80        5XY         0.00447   0.00854  -0.01228   0.00796   0.00577
  81        5XZ        -0.00620  -0.00539  -0.00981   0.00241   0.00495
  82        5YZ         0.00684  -0.01953   0.00071  -0.01928   0.00852
  83 8   H  1S         -0.01102   0.13140  -0.14420   0.12303  -0.03039
  84        2S         -0.00672   0.11385  -0.12984   0.11735  -0.04542
  85 9   H  1S          0.09591  -0.21138  -0.08118  -0.12223   0.04350
  86        2S          0.07165  -0.16201  -0.05149  -0.09395   0.06307
  87 10  H  1S         -0.05614   0.07799   0.21282  -0.04585  -0.01257
  88        2S         -0.05094   0.06079   0.17342  -0.05550  -0.02703
                          16        17        18        19        20
                           O         V         V         V         V
     Eigenvalues --     0.00000   0.00000   0.00000   0.00000   0.00000
   1 1   N  1S         -0.12616   0.00004  -0.00302   0.01083  -0.00023
   2        2S          0.30231  -0.00022   0.00772  -0.06443  -0.00972
   3        2PX        -0.16031   0.00392  -0.01485   0.03121  -0.00881
   4        2PY        -0.12486  -0.49695   0.02292  -0.01633  -0.02286
   5        2PZ         0.17961  -0.32494  -0.04141   0.00664   0.04079
   6        3S          0.49263  -0.00242   0.00574   0.10073   0.08476
   7        3PX        -0.09995   0.00174   0.00695   0.00380  -0.00296
   8        3PY        -0.08309  -0.30002   0.00250  -0.03085  -0.01691
   9        3PZ         0.12291  -0.19266  -0.00531   0.01774   0.01168
  10        4S         -0.19107  -0.01774  -0.94327  -3.54796  -3.31812
  11        4PX        -0.08406  -0.00560  -0.03286   0.11612  -1.44478
  12        4PY        -0.02176   0.04538  -0.18030  -0.14413   0.36773
  13        4PZ         0.03883   0.03549   0.12852   0.10518  -0.19336
  14        5XX        -0.01211   0.00185  -0.00110  -0.01021   0.00429
  15        5YY         0.00018  -0.00721   0.00043  -0.00688  -0.00347
  16        5ZZ        -0.00403   0.00570  -0.00112  -0.00573  -0.00433
  17        5XY         0.00114   0.00045   0.00423   0.00176  -0.00167
  18        5XZ        -0.00228   0.00058  -0.00641  -0.00327   0.00149
  19        5YZ         0.00635   0.00117   0.00472   0.00288  -0.00088
  20 2   N  1S          0.12658   0.00117  -0.00311   0.00988  -0.00351
  21        2S         -0.30360  -0.00556   0.01002  -0.05120   0.03084
  22        2PX        -0.16353  -0.00592   0.01513  -0.03219   0.00163
  23        2PY         0.11302   0.49852   0.02685   0.00099   0.02976
  24        2PZ        -0.18776   0.32337  -0.03947  -0.00647  -0.04149
  25        3S         -0.49519  -0.00066  -0.00866   0.03596  -0.10816
  26        3PX        -0.10214  -0.00240  -0.00350  -0.00667   0.00042
  27        3PY         0.07497   0.29747   0.01700  -0.01260   0.02899
  28        3PZ        -0.12850   0.19589   0.00333   0.02639  -0.01764
  29        4S          0.19006   0.01563  -0.23162  -0.92194   4.06675
  30        4PX        -0.08486   0.00354  -0.25176  -1.12449  -1.25077
  31        4PY         0.02114  -0.04874  -0.17947  -0.23582  -0.26856
  32        4PZ        -0.03906  -0.03084   0.10961   0.16150   0.17154
  33        5XX         0.01214   0.00241  -0.00089  -0.01041  -0.00028
  34        5YY        -0.00047   0.00406   0.00089  -0.00468   0.00566
  35        5ZZ         0.00432  -0.00580  -0.00070  -0.00250   0.00565
  36        5XY         0.00142   0.00053  -0.00461  -0.00277  -0.00065
  37        5XZ        -0.00201   0.00005   0.00628   0.00381   0.00097
  38        5YZ        -0.00619  -0.00520   0.00448   0.00304  -0.00049
  39 3   C  1S         -0.01481  -0.00065   0.04043   0.00653   0.02401
  40        2S          0.03553   0.00100  -0.09182  -0.03890  -0.05960
  41        2PX         0.00464   0.00262  -0.00340  -0.05214  -0.05306
  42        2PY        -0.01313  -0.03891  -0.04989  -0.03941  -0.01082
  43        2PZ         0.01951  -0.02137   0.01836  -0.04624   0.01878
  44        3S          0.13047   0.00372  -0.12839   0.07419  -0.04922
  45        3PX        -0.02198  -0.00117  -0.04470  -0.09946  -0.05871
  46        3PY        -0.03484  -0.04928  -0.11914  -0.10596  -0.08144
  47        3PZ         0.05170  -0.03285   0.07455   0.01518   0.07015
  48        4S         -0.05578  -0.01015   1.42061   1.92594  -1.08036
  49        4PX         0.02575   0.00198   0.02182  -0.05304   1.58058
  50        4PY        -0.00512   0.01570   0.31421  -0.42541   0.42237
  51        4PZ         0.00674   0.00644  -0.01109   1.28647  -0.31517
  52        5XX         0.00922   0.00342  -0.00154   0.00156  -0.00078
  53        5YY         0.00007  -0.01357  -0.00309  -0.00540  -0.00471
  54        5ZZ        -0.00944   0.00943   0.00137  -0.00428   0.00182
  55        5XY        -0.00223  -0.00684   0.00402   0.00015   0.00835
  56        5XZ        -0.00068  -0.00202  -0.00665   0.00348  -0.00705
  57        5YZ         0.00807   0.00078  -0.00699   0.00510  -0.00636
  58 4   H  1S          0.03191   0.02227   0.00871   0.00936  -0.00736
  59        2S          0.03258   0.02300  -0.12335  -0.00739  -0.16414
  60 5   H  1S         -0.01858   0.02344   0.01026   0.00354   0.00188
  61        2S         -0.04555   0.02190  -0.20265   0.10327   0.00909
  62 6   H  1S          0.00698  -0.05124   0.00350   0.00622  -0.00588
  63        2S         -0.00662  -0.05027  -0.20726  -0.08086  -0.02233
  64 7   C  1S          0.01459  -0.00018   0.04006  -0.00276  -0.02341
  65        2S         -0.03494  -0.00028  -0.09385  -0.01609   0.06515
  66        2PX         0.00281  -0.00224  -0.00008   0.02219  -0.06682
  67        2PY         0.01033   0.03476  -0.04410  -0.01386   0.02667
  68        2PZ        -0.02169   0.02664   0.02602  -0.02800   0.00114
  69        3S         -0.12913   0.00453  -0.10823   0.10887   0.02076
  70        3PX        -0.02382   0.00221   0.03758   0.05272  -0.08123
  71        3PY         0.02984   0.04868  -0.07784  -0.03459   0.06361
  72        3PZ        -0.05435   0.03521   0.10422   0.00131  -0.10215
  73        4S          0.05667   0.00635   1.18828   1.79973   0.48557
  74        4PX         0.02624   0.00266  -0.10283   0.49102   1.45787
  75        4PY         0.00459  -0.01392   0.32038  -0.43437  -0.34174
  76        4PZ        -0.00681  -0.00891  -0.07436   1.29585  -0.16104
  77        5XX        -0.00971   0.00291  -0.00350  -0.00111   0.00261
  78        5YY         0.00314   0.00803  -0.00286   0.00118   0.00153
  79        5ZZ         0.00673  -0.01135   0.00211  -0.00701   0.00139
  80        5XY         0.00084  -0.00312  -0.00588   0.00228   0.00476
  81        5XZ         0.00195  -0.00425   0.00678  -0.00463  -0.00923
  82        5YZ        -0.00831  -0.00884  -0.00434   0.01052   0.00233
  83 8   H  1S          0.01401   0.02908   0.00662   0.00259   0.00215
  84        2S          0.04171   0.02918  -0.26810  -0.03097   0.02537
  85 9   H  1S         -0.00073  -0.04865   0.00806   0.01279  -0.00129
  86        2S          0.01433  -0.04323  -0.08122   0.13585  -0.08384
  87 10  H  1S         -0.03241   0.01613   0.00603   0.00744   0.00473
  88        2S         -0.03496   0.01794  -0.17135  -0.01575   0.19335
                          21        22        23        24        25
                           V         V         V         V         V
     Eigenvalues --     0.00000   0.00000   0.00000   0.00000   0.00000
   1 1   N  1S         -0.01226  -0.00178   0.00392   0.00294  -0.02124
   2        2S          0.03988   0.01774  -0.01492   0.00770   0.08891
   3        2PX        -0.01823  -0.01696   0.00658   0.01773  -0.00043
   4        2PY         0.00341   0.00098   0.01470  -0.05431  -0.02630
   5        2PZ        -0.00426   0.01133  -0.00740  -0.00573   0.01852
   6        3S          0.12910  -0.05841  -0.01821  -0.14429  -0.21322
   7        3PX         0.14048  -0.07479   0.00133  -0.07753  -0.23172
   8        3PY         0.02943   0.00776  -0.01989  -0.26003  -0.08174
   9        3PZ        -0.05160  -0.01878  -0.01104  -0.16707   0.09310
  10        4S         -1.81032   1.67722  -0.01243   2.06632  22.49738
  11        4PX        -2.47200   0.79196   0.63177   0.40366   8.61525
  12        4PY         0.50578   0.40373   0.18333   1.90621   0.96650
  13        4PZ        -0.52361   0.16919   0.23837   1.62303  -1.56757
  14        5XX         0.01437  -0.00137  -0.00334  -0.00814  -0.01749
  15        5YY         0.00048   0.00385   0.00349   0.00445   0.01328
  16        5ZZ         0.00147   0.00529  -0.00332   0.01204   0.00478
  17        5XY        -0.00083   0.00030   0.00190  -0.00991  -0.00552
  18        5XZ         0.00103  -0.00022  -0.00370  -0.00779   0.00071
  19        5YZ        -0.00178  -0.00520  -0.00013  -0.00121   0.00493
  20 2   N  1S          0.01111  -0.00505   0.00527   0.01443   0.01547
  21        2S         -0.03412   0.03174  -0.02832  -0.02673  -0.08211
  22        2PX        -0.01730   0.02788  -0.00884   0.01332  -0.00252
  23        2PY        -0.00418  -0.00875   0.01142   0.04028   0.00575
  24        2PZ         0.00128   0.00485   0.00097   0.05577  -0.04170
  25        3S         -0.13304  -0.03004   0.03413  -0.12381   0.29008
  26        3PX         0.14121   0.00980   0.00071  -0.09953  -0.23862
  27        3PY        -0.03341   0.01965  -0.01378   0.24207   0.03264
  28        3PZ         0.04654   0.00736  -0.01320   0.27005  -0.11284
  29        4S          1.92572   0.21037  -1.80270  -0.97626 -22.74859
  30        4PX        -2.48943   0.18465  -0.01623   0.76326   8.69331
  31        4PY        -0.53047  -0.24031   0.15558  -2.17997  -0.99004
  32        4PZ         0.46321  -0.59297   0.27311  -1.91364   1.49100
  33        5XX        -0.01305   0.00586  -0.00522   0.00816   0.01863
  34        5YY        -0.00189   0.00116   0.00144   0.00517  -0.01287
  35        5ZZ         0.00036   0.00713  -0.00482  -0.00496  -0.01364
  36        5XY        -0.00070  -0.00038  -0.00186  -0.00546   0.00160
  37        5XZ         0.00151  -0.00115   0.00337  -0.00419   0.00626
  38        5YZ         0.00137  -0.00340   0.00026  -0.00093  -0.00545
  39 3   C  1S         -0.00438  -0.00669   0.01214   0.01548  -0.02440
  40        2S         -0.01952   0.02159  -0.03517  -0.00860   0.00368
  41        2PX        -0.04706  -0.03189  -0.02356  -0.01153   0.00343
  42        2PY        -0.01598  -0.00980   0.07127   0.00558   0.05669
  43        2PZ        -0.02988  -0.05893   0.04972   0.05695   0.05346
  44        3S          0.17928  -0.00690  -0.01788  -0.26093   0.54990
  45        3PX        -0.05331  -0.03847  -0.03395  -0.00885   0.06528
  46        3PY        -0.05102   0.03785   0.06892  -0.01557   0.08909
  47        3PZ         0.04714  -0.03799   0.09555   0.28539   0.17865
  48        4S          4.18184  -0.71269   0.80795  -0.74809  -2.16872
  49        4PX        -0.83251   0.84847   0.15060   0.12777  -0.06792
  50        4PY        -0.84199   1.09780  -0.99745   0.96957   0.94281
  51        4PZ         2.15345   0.04246  -0.04829   0.43961  -1.25164
  52        5XX        -0.00122   0.00482  -0.00389   0.00190  -0.00519
  53        5YY        -0.00495  -0.00467   0.00221   0.00818  -0.00983
  54        5ZZ        -0.00288   0.00325  -0.00234  -0.00274   0.00019
  55        5XY         0.00082   0.00548   0.00137   0.00058  -0.00206
  56        5XZ         0.00721   0.00169  -0.00134   0.00382   0.01001
  57        5YZ         0.00469  -0.00660   0.00747   0.00056  -0.00832
  58 4   H  1S         -0.00322  -0.00885  -0.00124   0.00959  -0.00988
  59        2S          0.00454  -0.06074  -0.13739  -0.00753  -0.13887
  60 5   H  1S          0.02079  -0.00191  -0.00091   0.01000   0.02361
  61        2S          0.18599   0.29218  -0.05895   0.33981   0.32344
  62 6   H  1S          0.00787  -0.02104   0.01458   0.02176  -0.04487
  63        2S         -0.07555  -0.18657   0.21391   0.16299  -0.13149
  64 7   C  1S          0.00250  -0.00420   0.01480   0.00204   0.02412
  65        2S          0.02053   0.00788  -0.03793   0.00287  -0.00853
  66        2PX        -0.04872   0.07761   0.03243   0.09949  -0.02536
  67        2PY         0.00776   0.04359   0.08562   0.08357   0.05802
  68        2PZ         0.02162  -0.03996   0.05084  -0.00543   0.03293
  69        3S         -0.15043   0.01502  -0.06486  -0.09111  -0.51118
  70        3PX        -0.06989   0.08264   0.08873   0.48393  -0.01851
  71        3PY         0.06498   0.02459   0.07390   0.34852   0.17406
  72        3PZ        -0.04009  -0.07376   0.10723  -0.09472   0.01920
  73        4S         -4.28091  -0.65007   1.19756  -0.20042   2.37656
  74        4PX        -0.94903  -1.43366  -0.04970   0.09435   0.01016
  75        4PY         0.89876  -0.72232  -0.90628  -0.40828  -0.90634
  76        4PZ        -2.13443  -0.25030  -0.07482  -0.60427   1.43545
  77        5XX         0.00452   0.00156   0.00256   0.00535   0.00432
  78        5YY        -0.00193   0.00065  -0.00134  -0.01152   0.00664
  79        5ZZ         0.00539  -0.00346  -0.00446   0.00676   0.00379
  80        5XY        -0.00247   0.00652   0.00307  -0.00899  -0.00713
  81        5XZ         0.00240   0.00516   0.00178  -0.00789   0.00648
  82        5YZ        -0.00749  -0.00350  -0.00368   0.00788   0.00733
  83 8   H  1S         -0.01284   0.00476   0.00595  -0.06333  -0.01031
  84        2S         -0.06215   0.35121   0.13942  -0.72517  -0.28853
  85 9   H  1S         -0.01642  -0.01777  -0.00497   0.01378   0.03890
  86        2S         -0.10207  -0.02381  -0.19864   0.38346   0.02346
  87 10  H  1S          0.00242  -0.01155   0.00855   0.04631  -0.00184
  88        2S          0.02265  -0.09445   0.02089   0.59775   0.04874
                          26        27        28        29        30
                           V         V         V         V         V
     Eigenvalues --     0.00000   0.00000   0.00000   0.00000   0.00000
   1 1   N  1S         -0.00420   0.00305   0.02408  -0.00666   0.00758
   2        2S          0.02397  -0.01799  -0.03707   0.03544  -0.02615
   3        2PX        -0.02528  -0.00577  -0.02706  -0.03189   0.00597
   4        2PY        -0.00823   0.08801  -0.04347  -0.03572   0.01806
   5        2PZ         0.01113   0.05441  -0.00335   0.04376  -0.04691
   6        3S         -0.02376   0.06466  -0.19681  -0.05064  -0.04910
   7        3PX        -0.02459   0.11186   0.24631  -0.06957  -0.00248
   8        3PY         0.04269   0.28323  -0.17720  -0.14094  -0.06781
   9        3PZ         0.03033   0.21126   0.00149   0.14896   0.05610
  10        4S         -0.52108   0.17521   1.66179  -0.55135  -8.71550
  11        4PX        -0.38004  -0.12745  -0.49995   0.64417  -1.01005
  12        4PY        -0.45939  -0.70329   2.01055   0.46067  -0.64235
  13        4PZ        -0.56454  -0.66908  -0.19100  -0.83530   1.31858
  14        5XX         0.00211   0.00617   0.02523   0.00281  -0.00393
  15        5YY         0.00107   0.00368  -0.00235   0.00466  -0.00154
  16        5ZZ         0.00619  -0.01408   0.00068  -0.00533  -0.00785
  17        5XY        -0.00067   0.01119   0.00029  -0.00360  -0.00226
  18        5XZ         0.00168   0.00613   0.00085   0.00603  -0.00231
  19        5YZ        -0.00124  -0.00380   0.00468   0.01208   0.00446
  20 2   N  1S          0.00015  -0.00491  -0.00398  -0.00979  -0.00829
  21        2S          0.01184   0.00289   0.02112   0.04359   0.02693
  22        2PX         0.01679  -0.01353  -0.03943   0.02738   0.00038
  23        2PY        -0.01038   0.07614  -0.02542  -0.01463  -0.03324
  24        2PZ         0.00580   0.05663   0.01560   0.06222   0.02766
  25        3S         -0.06176   0.02807  -0.13013  -0.05574   0.05998
  26        3PX         0.04685   0.08461   0.20964   0.12529  -0.01321
  27        3PY        -0.03318   0.25712   0.02568  -0.03183   0.04459
  28        3PZ        -0.04086   0.17208   0.00908   0.20805  -0.07722
  29        4S          2.14243  -0.59191  -0.14117   0.39322   8.58590
  30        4PX        -0.79695   0.11966   0.04860  -1.00507  -0.98700
  31        4PY         0.58777  -0.99991  -1.23748   0.47442   0.66300
  32        4PZ         0.23664  -0.24119   0.42912  -0.77905  -1.28600
  33        5XX        -0.00069  -0.00916  -0.02109  -0.00194   0.00508
  34        5YY         0.00475   0.00781   0.01009   0.00582   0.00263
  35        5ZZ         0.00421  -0.00854   0.01098  -0.00347   0.00470
  36        5XY         0.00196  -0.01080  -0.00801   0.00240   0.00210
  37        5XZ         0.00086  -0.00590  -0.00239  -0.00688   0.00130
  38        5YZ        -0.00388  -0.00557  -0.00415   0.01171  -0.00539
  39 3   C  1S         -0.00346  -0.00837  -0.00537   0.02595  -0.02192
  40        2S          0.00883  -0.00056  -0.00024   0.00034   0.06378
  41        2PX        -0.07220  -0.03933  -0.14444  -0.00749  -0.00692
  42        2PY         0.08949   0.01580   0.02506  -0.06168   0.05977
  43        2PZ         0.00083  -0.03612  -0.10217  -0.02378  -0.02656
  44        3S         -0.01326   0.15530   0.07996  -0.47245  -0.03624
  45        3PX        -0.06586  -0.25552  -0.76526   0.16679   0.13589
  46        3PY         0.12270   0.13019   0.22481  -0.24086   0.21899
  47        3PZ         0.01299  -0.13951  -0.48178  -0.10209  -0.20428
  48        4S         -0.99627   0.45101   0.77354   0.05694  -9.21037
  49        4PX         1.35534  -0.22442  -0.52603   0.33562   4.02421
  50        4PY        -1.03879   0.37319   0.21662  -0.22889   0.57292
  51        4PZ        -0.52855   0.34589  -0.16600   0.29611  -0.33628
  52        5XX        -0.00285   0.00104   0.00796  -0.00148   0.00559
  53        5YY         0.00030   0.00172   0.00401   0.01036  -0.00363
  54        5ZZ         0.00186  -0.00703  -0.01709   0.00842  -0.00145
  55        5XY         0.00321  -0.00380  -0.01595   0.00049  -0.00137
  56        5XZ        -0.00165  -0.00154  -0.00815  -0.00186   0.00961
  57        5YZ         0.00293  -0.00261  -0.00217   0.00638   0.00178
  58 4   H  1S         -0.00961   0.01696   0.07679  -0.00939   0.00358
  59        2S         -0.15988   0.27047   1.03752  -0.15409   0.03319
  60 5   H  1S         -0.00866  -0.02193  -0.08026   0.01436   0.00361
  61        2S          0.18341  -0.34563  -0.99854  -0.16688   0.26497
  62 6   H  1S         -0.00372  -0.01512  -0.02457   0.03760  -0.02943
  63        2S          0.20859   0.02110   0.15767   0.26410   0.06035
  64 7   C  1S         -0.00481   0.00611   0.03147   0.02607   0.01916
  65        2S          0.02379  -0.00712  -0.01156  -0.00466  -0.06637
  66        2PX         0.02843  -0.02955  -0.05016  -0.01199  -0.02591
  67        2PY        -0.03672  -0.05714  -0.16506   0.02050   0.00428
  68        2PZ        -0.07049   0.00923   0.02727   0.05404   0.07772
  69        3S         -0.04087  -0.07372  -0.57361  -0.44640   0.10350
  70        3PX         0.05835  -0.13257  -0.32339  -0.24712   0.08785
  71        3PY        -0.04930  -0.22591  -0.71090   0.09460  -0.12080
  72        3PZ        -0.10061   0.09416   0.13757   0.22684   0.28132
  73        4S         -0.21373  -0.20132  -1.99544   0.13137   9.33506
  74        4PX        -0.33514  -0.03353  -0.62528  -0.27120   4.09661
  75        4PY         1.42404   0.38002  -0.53049  -0.14272  -0.49610
  76        4PZ         0.25852   0.28409  -0.68142   0.30325   0.46219
  77        5XX        -0.00180   0.00027   0.00256  -0.00229  -0.00493
  78        5YY         0.00308   0.00474   0.00935   0.01279  -0.00141
  79        5ZZ         0.00501  -0.00250   0.00428   0.00556   0.00351
  80        5XY        -0.00695   0.00349   0.01243  -0.00109  -0.00607
  81        5XZ         0.00220   0.00166   0.00193   0.00154   0.00514
  82        5YZ         0.00158  -0.00246   0.00156   0.00445  -0.00268
  83 8   H  1S         -0.02142   0.02214   0.06355   0.02323   0.00279
  84        2S         -0.03436   0.43900   1.10326  -0.06325  -0.22728
  85 9   H  1S          0.00115   0.00371   0.01616   0.03868   0.02576
  86        2S          0.19200  -0.13360  -0.22197   0.18566  -0.20012
  87 10  H  1S         -0.00782  -0.00604  -0.01090  -0.01459  -0.00900
  88        2S         -0.10275  -0.13929  -0.31471  -0.23961  -0.06263
                          31        32        33        34        35
                           V         V         V         V         V
     Eigenvalues --     0.00000   0.00000   0.00000   0.00000   0.00000
   1 1   N  1S          0.00687   0.01088  -0.01383   0.01401  -0.06376
   2        2S          0.01261  -0.00886   0.02004  -0.03068   0.06001
   3        2PX        -0.00039  -0.02905  -0.08814   0.00237  -0.02064
   4        2PY         0.02297  -0.00753   0.03731  -0.01777   0.05318
   5        2PZ        -0.07579  -0.03353  -0.04037   0.02613  -0.01901
   6        3S         -0.24121  -0.09307   0.24112  -0.05857   1.02754
   7        3PX         0.12233  -0.07741  -0.22129   0.24248  -0.30279
   8        3PY        -0.01284  -0.02787   0.13240  -0.12839   0.04705
   9        3PZ        -0.19302  -0.17787  -0.07306   0.18286   0.08582
  10        4S          0.50788   0.38596  -1.47123 -19.46495 -15.64150
  11        4PX        -2.98544   2.01569  -1.12065  -9.11027  -2.46313
  12        4PY         0.42974   0.23071   0.03864   1.53351   0.09312
  13        4PZ        -0.89175   0.18373  -0.59361  -2.47955   0.42048
  14        5XX         0.01188  -0.00231  -0.01509   0.02332  -0.04216
  15        5YY         0.00970   0.01250   0.01081  -0.00447  -0.03029
  16        5ZZ         0.00347   0.01427   0.00637  -0.00824  -0.01285
  17        5XY         0.00704  -0.00648   0.00770  -0.00114  -0.00031
  18        5XZ        -0.01033   0.00779  -0.01102  -0.00195   0.01270
  19        5YZ         0.00873  -0.00314   0.00535   0.00523  -0.00230
  20 2   N  1S          0.01401   0.00547   0.00340  -0.01699   0.04387
  21        2S          0.00764  -0.00275   0.00276   0.03116  -0.06077
  22        2PX        -0.01732   0.01308   0.09175   0.00558  -0.00508
  23        2PY         0.07095   0.03820   0.00382   0.01137  -0.01789
  24        2PZ        -0.03076  -0.00048  -0.03320  -0.02011   0.08494
  25        3S         -0.36694  -0.05403  -0.05912   0.12265  -0.57145
  26        3PX        -0.12973   0.18044   0.18050   0.26018  -0.22829
  27        3PY         0.27604   0.21741  -0.01887   0.09361   0.04063
  28        3PZ        -0.09335  -0.05718  -0.12464  -0.17253   0.11092
  29        4S          6.97829  -2.18449   3.75647  18.84727  13.14834
  30        4PX         1.00349  -1.23928  -0.21908  -9.38465  -3.09800
  31        4PY         0.24689  -0.59458   0.65930  -1.67668  -0.15715
  32        4PZ        -0.06687   0.37472  -0.52116   2.48964   0.14838
  33        5XX         0.01209  -0.01279  -0.00403  -0.02531   0.03202
  34        5YY         0.01190   0.01375   0.01636   0.00245   0.00019
  35        5ZZ         0.01406   0.01637   0.00799   0.00621   0.01360
  36        5XY        -0.01121   0.00219  -0.00664   0.00357  -0.00858
  37        5XZ         0.01101  -0.00956   0.01318  -0.00109  -0.00079
  38        5YZ         0.00848  -0.00522   0.00615  -0.00636   0.00228
  39 3   C  1S          0.01671  -0.05042  -0.00376  -0.05892  -0.01633
  40        2S          0.00062   0.05836   0.00741   0.03735   0.02574
  41        2PX         0.02958   0.00078  -0.04986   0.14611   0.00644
  42        2PY        -0.11589  -0.03472   0.20745   0.04320  -0.17604
  43        2PZ        -0.16850  -0.11834  -0.12872   0.00364  -0.01079
  44        3S         -0.39920   0.68962   0.04389   1.12475   0.14404
  45        3PX         0.32506   0.15393  -0.01237   0.56102  -0.01726
  46        3PY        -0.58059  -0.20989   0.84513   0.12886  -0.76536
  47        3PZ        -0.68944  -0.49583  -0.60129   0.06732  -0.01256
  48        4S         -3.08001   1.01417  -0.53221   5.62306  -5.48211
  49        4PX         0.66581   0.16769  -0.21359  -0.58545   2.41881
  50        4PY         0.28102  -0.06465   0.33235  -0.94117   0.27133
  51        4PZ        -1.12009   0.07148  -0.06200   1.49119  -0.75725
  52        5XX        -0.01337  -0.00987   0.00488   0.00141  -0.00506
  53        5YY         0.01257  -0.00100  -0.00107  -0.01152   0.01164
  54        5ZZ         0.01021  -0.00865  -0.00013  -0.01317  -0.00471
  55        5XY         0.00869   0.00413  -0.00108   0.00488  -0.00333
  56        5XZ        -0.00013  -0.01033  -0.00528  -0.01117   0.01116
  57        5YZ         0.00676   0.00729  -0.00502  -0.00128   0.01101
  58 4   H  1S         -0.06641  -0.04220   0.01645  -0.03266  -0.02294
  59        2S         -0.93074  -0.33223   0.29376  -0.36157  -0.35148
  60 5   H  1S         -0.01009  -0.05496  -0.03909  -0.04100  -0.00160
  61        2S         -0.43649  -0.77466  -1.31298  -0.00554  -0.05921
  62 6   H  1S          0.07100   0.01486  -0.04895  -0.04428   0.07323
  63        2S          1.05683   0.24623  -1.37587  -0.45923   1.13855
  64 7   C  1S          0.02395  -0.04517  -0.00335   0.05247   0.00381
  65        2S         -0.01137   0.05445  -0.00381  -0.03454  -0.02540
  66        2PX        -0.03772  -0.05538   0.06289   0.14742   0.04956
  67        2PY         0.12006   0.07921   0.09342   0.00309  -0.09522
  68        2PZ        -0.00714   0.01331  -0.24668   0.03126  -0.15017
  69        3S         -0.49093   0.60122   0.14404  -0.99632   0.17748
  70        3PX        -0.34443  -0.42396   0.07852   0.58631   0.31728
  71        3PY         0.51048   0.30272   0.45150   0.08789  -0.42790
  72        3PZ         0.08383   0.12422  -1.07414   0.10022  -0.73453
  73        4S         -1.83081   0.86565   0.50629  -5.18154   6.99384
  74        4PX         0.01091  -0.34973   0.72336  -0.51993   2.79832
  75        4PY         0.70900  -0.19058  -0.06216   0.93327  -1.00500
  76        4PZ        -0.59927   0.18650  -0.20086  -1.29947   0.96626
  77        5XX        -0.01516  -0.01095   0.00629  -0.00179   0.00870
  78        5YY         0.01687   0.00122  -0.00821   0.01227  -0.01159
  79        5ZZ         0.01026  -0.00599   0.00042   0.01058  -0.00551
  80        5XY        -0.00010  -0.00530  -0.00610   0.00662  -0.00898
  81        5XZ         0.00810   0.01046   0.00560  -0.00874   0.00709
  82        5YZ         0.00065   0.00730  -0.00671   0.00131  -0.01839
  83 8   H  1S          0.00868  -0.02636  -0.05370   0.03530  -0.00328
  84        2S         -0.22309  -0.41363  -1.49432  -0.04580   0.13011
  85 9   H  1S          0.04778   0.01975  -0.05231   0.04526  -0.08708
  86        2S          0.49369   0.09032  -1.33594   0.36825  -1.21712
  87 10  H  1S         -0.06361  -0.06178   0.01993   0.03543   0.04399
  88        2S         -0.87339  -0.63957   0.33549   0.42755   0.74653
                          36        37        38        39        40
                           V         V         V         V         V
     Eigenvalues --     0.00000   0.00000   0.00000   0.00000   0.00000
   1 1   N  1S         -0.05611  -0.00299   0.05882  -0.02938   0.04431
   2        2S          0.02955   0.02872  -0.02873  -0.00326  -0.03347
   3        2PX        -0.05432  -0.02678   0.14787  -0.01793  -0.00486
   4        2PY         0.02020   0.09757  -0.05185  -0.01355  -0.02736
   5        2PZ        -0.06179  -0.10133   0.11546  -0.02605   0.05477
   6        3S          1.06452  -0.06410  -1.23362   0.71965  -0.82526
   7        3PX        -0.04471  -0.15020   0.40791  -0.09949   0.19009
   8        3PY        -0.04590   0.29762  -0.18436  -0.12557  -0.13679
   9        3PZ        -0.13008  -0.37073   0.33902   0.04684   0.29183
  10        4S         -2.81315   2.72666   5.84019 -35.34680  -2.04070
  11        4PX        -0.52286   0.88415   1.02208 -11.12414  -2.48210
  12        4PY         0.75133   0.95839   0.68515  -0.12343   1.77584
  13        4PZ         0.87986   0.11497   0.01607   0.20598  -2.69900
  14        5XX        -0.00537   0.00222   0.02293  -0.01825   0.03539
  15        5YY        -0.03701   0.01433   0.01868  -0.01272   0.01171
  16        5ZZ        -0.03428   0.01669   0.02230  -0.03081   0.00498
  17        5XY        -0.00038   0.00701  -0.00318  -0.01264   0.00192
  18        5XZ        -0.00277  -0.00656   0.00896   0.00655   0.00055
  19        5YZ         0.00031   0.00957   0.00582   0.00031   0.00698
  20 2   N  1S         -0.06906   0.00522   0.05506   0.05273  -0.03925
  21        2S          0.05243   0.01338  -0.03918  -0.00505   0.03072
  22        2PX         0.04985   0.04525  -0.12273  -0.08216  -0.01601
  23        2PY         0.04641   0.06419  -0.07302  -0.04749   0.02874
  24        2PZ        -0.05254  -0.11627   0.10250   0.01128  -0.04505
  25        3S          1.15884  -0.16600  -1.08513  -1.23900   0.73380
  26        3PX         0.16389   0.14572  -0.37334  -0.26202   0.18152
  27        3PY         0.09801   0.23906  -0.23970  -0.05198   0.17263
  28        3PZ        -0.00903  -0.35102   0.38033  -0.07186  -0.23422
  29        4S         -3.22322   1.42070  -3.57396  36.25186   2.03813
  30        4PX        -0.08244  -0.41306   1.96059 -11.06087  -2.58318
  31        4PY        -1.07797  -0.40859  -0.09040   0.02562  -1.80856
  32        4PZ        -0.17082  -0.95996  -0.78541  -0.58570   2.60685
  33        5XX        -0.01884   0.00881   0.02181   0.03112  -0.03358
  34        5YY        -0.03513   0.01871   0.01419   0.03815  -0.00739
  35        5ZZ        -0.03750   0.00802   0.01165   0.02051  -0.00520
  36        5XY        -0.00243  -0.00509   0.00629   0.00113   0.00047
  37        5XZ        -0.00057   0.00601  -0.01114   0.01026  -0.00299
  38        5YZ        -0.00100   0.00882   0.00649  -0.00372  -0.00748
  39 3   C  1S         -0.02639   0.05940  -0.09237   0.00188   0.07210
  40        2S         -0.00471  -0.04923   0.10066   0.04370  -0.07210
  41        2PX         0.08725   0.19032   0.04377  -0.08507  -0.03192
  42        2PY         0.07278   0.05516  -0.02771   0.12833  -0.04640
  43        2PZ        -0.06010   0.06692   0.10857   0.14238   0.07394
  44        3S          0.66804  -1.11343   1.64610  -0.53791  -1.21011
  45        3PX         0.28909   0.98000   0.26277  -0.20975  -0.02456
  46        3PY         0.26437   0.34711  -0.25429   0.52494  -0.17396
  47        3PZ        -0.17482   0.18614   0.59952   0.64769   0.19088
  48        4S          3.32306  -1.59791   0.12787  -0.56846   0.48569
  49        4PX        -0.98181   0.80134   0.21075   0.73343   0.07076
  50        4PY        -0.48238   0.35091   0.30754   0.35344  -0.28265
  51        4PZ         1.12899   0.04196  -0.15343   0.29648   0.40266
  52        5XX        -0.01631  -0.00449   0.00010   0.00438   0.00449
  53        5YY        -0.00416  -0.00176   0.00353   0.00311  -0.00527
  54        5ZZ         0.00867   0.00893   0.00255   0.00873  -0.00732
  55        5XY         0.01068   0.00346  -0.00041  -0.01072   0.00332
  56        5XZ        -0.00896   0.00303   0.01419   0.00441  -0.00304
  57        5YZ        -0.01621  -0.00217   0.01017   0.01217   0.00376
  58 4   H  1S         -0.06241  -0.03525  -0.04140   0.03617   0.04868
  59        2S         -0.60785  -0.46860  -1.52325   0.82827   1.45386
  60 5   H  1S          0.01059   0.06002   0.01757   0.04324   0.05229
  61        2S         -0.11244   1.28331  -0.35740   0.54577   1.25034
  62 6   H  1S         -0.02085  -0.03150  -0.01677  -0.01526   0.05019
  63        2S         -0.41786  -0.16621  -1.00066  -1.16822   1.44815
  64 7   C  1S         -0.03012   0.06602  -0.08427  -0.02315  -0.07481
  65        2S          0.00492  -0.04789   0.10401  -0.00957   0.07785
  66        2PX        -0.11524  -0.13906   0.01590  -0.15468  -0.02472
  67        2PY         0.01088  -0.12369  -0.14338   0.09988   0.01986
  68        2PZ        -0.06649  -0.08930   0.01372   0.10340  -0.07265
  69        3S          0.68978  -1.27063   1.38104   0.84989   1.27265
  70        3PX        -0.45603  -0.80092  -0.02571  -0.54193  -0.00809
  71        3PY        -0.02642  -0.44875  -0.68933   0.42652  -0.02153
  72        3PZ        -0.20778  -0.54941   0.19113   0.47190  -0.31003
  73        4S          1.04667  -1.27901  -0.01542   0.19020  -0.40899
  74        4PX         0.13602  -0.58472  -0.30419   0.32975   0.08957
  75        4PY        -0.70042  -0.22262  -0.08513   0.33169   0.17689
  76        4PZ         0.44624  -0.37119  -0.46724  -0.01262  -0.44662
  77        5XX        -0.01911  -0.00060   0.00414  -0.00721  -0.00298
  78        5YY         0.00003   0.00610   0.01108  -0.00890   0.00612
  79        5ZZ         0.00809  -0.00204  -0.00697   0.00529   0.00617
  80        5XY         0.00019   0.00119   0.01004   0.00391   0.00309
  81        5XZ         0.01275   0.00189  -0.00798   0.00710  -0.00715
  82        5YZ        -0.01445  -0.00588   0.00862  -0.00310  -0.00468
  83 8   H  1S          0.02337   0.05578   0.03095  -0.02283  -0.04284
  84        2S          0.12991   1.31560  -0.21707  -0.20451  -1.20775
  85 9   H  1S         -0.01127  -0.04539  -0.03521   0.01160  -0.06172
  86        2S         -0.31033  -0.43922  -1.33528   0.87007  -1.71162
  87 10  H  1S         -0.07938  -0.00991  -0.01033  -0.05099  -0.04488
  88        2S         -0.88564  -0.03833  -0.88577  -1.47880  -1.41122
                          41        42        43        44        45
                           V         V         V         V         V
     Eigenvalues --     0.00000   0.00000   0.00000   0.00000   0.00000
   1 1   N  1S          0.04968  -0.08619   0.01616   0.00144  -0.00556
   2        2S         -0.03873   0.11543  -0.07773  -0.02124   0.17274
   3        2PX        -0.04364   0.35901   0.09839   0.04854   0.00537
   4        2PY        -0.14848  -0.04896  -0.01970   0.06078   0.08963
   5        2PZ         0.24578   0.04714   0.06312   0.08629  -0.08953
   6        3S         -1.36217   2.57835   0.33051   0.21133  -0.64761
[...]
  72        3PZ        -0.00003   0.00000   0.00000   0.00000  -0.00045
  73        4S          0.00000   0.00000  -0.00001   0.00009   0.00036
  74        4PX         0.00000   0.00000   0.00019   0.00039   0.00014
  75        4PY         0.00000   0.00000  -0.00002  -0.00005   0.00003
  76        4PZ        -0.00001   0.00000   0.00000  -0.00001  -0.00043
  77        5XX         0.00000   0.00000   0.00000   0.00000   0.00000
  78        5YY         0.00000   0.00000   0.00000   0.00000   0.00000
  79        5ZZ         0.00000   0.00000   0.00000   0.00000   0.00000
  80        5XY         0.00000   0.00000   0.00000   0.00000   0.00000
  81        5XZ         0.00000   0.00000   0.00000   0.00000   0.00000
  82        5YZ         0.00000   0.00000   0.00000   0.00000   0.00000
  83 8   H  1S          0.00000   0.00000   0.00000   0.00000   0.00000
  84        2S          0.00000   0.00000   0.00000   0.00001  -0.00026
  85 9   H  1S          0.00000   0.00000   0.00000   0.00000  -0.00001
  86        2S         -0.00001   0.00000   0.00000   0.00001   0.00022
  87 10  H  1S          0.00000   0.00000   0.00000   0.00000   0.00000
  88        2S          0.00000   0.00000   0.00000   0.00001   0.00001
                          61        62        63        64        65
  61        2S          0.10371
  62 6   H  1S         -0.00689   0.21094
  63        2S         -0.01818   0.09328   0.10837
  64 7   C  1S         -0.00001   0.00000   0.00000   2.05908
  65        2S          0.00013   0.00000   0.00010  -0.01860   0.26934
  66        2PX         0.00021   0.00000   0.00025   0.00000   0.00000
  67        2PY         0.00012   0.00000  -0.00004   0.00000   0.00000
  68        2PZ        -0.00017   0.00000   0.00000   0.00000   0.00000
  69        3S          0.00108  -0.00007   0.00039  -0.03374   0.22706
  70        3PX         0.00082  -0.00035   0.00013   0.00000   0.00000
  71        3PY         0.00036  -0.00019  -0.00049   0.00000   0.00000
  72        3PZ        -0.00114   0.00000   0.00002   0.00000   0.00000
  73        4S          0.00088  -0.00042  -0.00069  -0.00205   0.01188
  74        4PX         0.00029  -0.00044  -0.00062   0.00000   0.00000
  75        4PY         0.00015  -0.00020  -0.00043   0.00000   0.00000
  76        4PZ        -0.00092   0.00000   0.00001   0.00000   0.00000
  77        5XX         0.00004   0.00000   0.00002  -0.00059   0.00573
  78        5YY        -0.00006   0.00000   0.00003  -0.00053   0.00403
  79        5ZZ         0.00004   0.00000  -0.00003  -0.00048   0.00343
  80        5XY         0.00000   0.00000  -0.00001   0.00000   0.00000
  81        5XZ         0.00000   0.00000   0.00000   0.00000   0.00000
  82        5YZ         0.00000   0.00000   0.00000   0.00000   0.00000
  83 8   H  1S         -0.00025   0.00000   0.00026  -0.00174   0.02631
  84        2S         -0.00212   0.00033   0.00211  -0.00033   0.00735
  85 9   H  1S          0.00035   0.00000  -0.00007  -0.00178   0.02688
  86        2S          0.00189  -0.00007  -0.00087  -0.00034   0.00782
  87 10  H  1S          0.00000   0.00000   0.00000  -0.00188   0.02945
  88        2S          0.00005   0.00000  -0.00002  -0.00113   0.01592
                          66        67        68        69        70
  66        2PX         0.38704
  67        2PY         0.00000   0.37837
  68        2PZ         0.00000   0.00000   0.37074
  69        3S          0.00000   0.00000   0.00000   0.32262
  70        3PX         0.12120   0.00000   0.00000   0.00000   0.12149
  71        3PY         0.00000   0.10594   0.00000   0.00000   0.00000
  72        3PZ         0.00000   0.00000   0.10538   0.00000   0.00000
  73        4S          0.00000   0.00000   0.00000   0.01321   0.00000
  74        4PX         0.00308   0.00000   0.00000   0.00000   0.00543
  75        4PY         0.00000   0.00293   0.00000   0.00000   0.00000
  76        4PZ         0.00000   0.00000   0.00400   0.00000   0.00000
  77        5XX         0.00000   0.00000   0.00000   0.00666   0.00000
  78        5YY         0.00000   0.00000   0.00000   0.00367   0.00000
  79        5ZZ         0.00000   0.00000   0.00000   0.00175   0.00000
  80        5XY         0.00000   0.00000   0.00000   0.00000   0.00000
  81        5XZ         0.00000   0.00000   0.00000   0.00000   0.00000
  82        5YZ         0.00000   0.00000   0.00000   0.00000   0.00000
  83 8   H  1S          0.00705   0.08953   0.00000   0.03939   0.00648
  84        2S          0.00402   0.04967  -0.00006   0.00963   0.00530
  85 9   H  1S          0.00245   0.01536   0.07925   0.04163   0.00281
  86        2S          0.00120   0.00922   0.03958   0.01256   0.00195
  87 10  H  1S          0.09199   0.00066   0.00569   0.04733   0.06976
  88        2S          0.04222   0.00058   0.00371   0.03251   0.05170
                          71        72        73        74        75
  71        3PY         0.09431
  72        3PZ         0.00000   0.09874
  73        4S          0.00000   0.00000   0.01295
  74        4PX         0.00000   0.00000   0.00000   0.00267
  75        4PY         0.00515   0.00000   0.00000   0.00000   0.00129
  76        4PZ         0.00000   0.00755   0.00000   0.00000   0.00000
  77        5XX         0.00000   0.00000   0.00040   0.00000   0.00000
  78        5YY         0.00000   0.00000   0.00007   0.00000   0.00000
  79        5ZZ         0.00000   0.00000   0.00036   0.00000   0.00000
  80        5XY         0.00000   0.00000   0.00000   0.00000   0.00000
  81        5XZ         0.00000   0.00000   0.00000   0.00000   0.00000
  82        5YZ         0.00000   0.00000   0.00000   0.00000   0.00000
  83 8   H  1S          0.06243  -0.00002   0.00084   0.00037   0.00213
  84        2S          0.05546  -0.00007  -0.00054   0.00061   0.00375
  85 9   H  1S          0.01120   0.05771   0.00046   0.00022   0.00017
  86        2S          0.01042   0.04672  -0.00147   0.00031   0.00022
  87 10  H  1S          0.00060   0.00539   0.00425   0.00255   0.00007
  88        2S          0.00077   0.00538   0.00364   0.00432   0.00011
                          76        77        78        79        80
  76        4PZ         0.00236
  77        5XX         0.00000   0.00341
  78        5YY         0.00000  -0.00048   0.00276
  79        5ZZ         0.00000  -0.00045  -0.00030   0.00261
  80        5XY         0.00000   0.00000   0.00000   0.00000   0.00120
  81        5XZ         0.00000   0.00000   0.00000   0.00000   0.00000
  82        5YZ         0.00000   0.00000   0.00000   0.00000   0.00000
  83 8   H  1S          0.00001  -0.00099   0.00976  -0.00101   0.00160
  84        2S          0.00001  -0.00261   0.00721  -0.00291   0.00027
  85 9   H  1S          0.00229  -0.00107  -0.00058   0.00745   0.00006
  86        2S          0.00385  -0.00271  -0.00182   0.00580   0.00001
  87 10  H  1S          0.00050   0.01072  -0.00104  -0.00107   0.00010
  88        2S          0.00073   0.00730  -0.00274  -0.00242   0.00000
                          81        82        83        84        85
  81        5XZ         0.00167
  82        5YZ         0.00000   0.00167
  83 8   H  1S          0.00000   0.00000   0.21139
  84        2S          0.00000   0.00000   0.09534   0.11344
  85 9   H  1S          0.00053   0.00287  -0.00042  -0.00713   0.20982
  86        2S          0.00008   0.00045  -0.00676  -0.01803   0.08811
  87 10  H  1S          0.00110  -0.00001  -0.00046  -0.00613  -0.00045
  88        2S          0.00012   0.00000  -0.00595  -0.01534  -0.00558
                          86        87        88
  86        2S          0.09742
  87 10  H  1S         -0.00536   0.21053
  88        2S         -0.01307   0.08514   0.08899
     Gross orbital populations:
                           1
   1 1   N  1S          1.99619
   2        2S          0.81871
   3        2PX         0.79368
   4        2PY         0.68397
   5        2PZ         0.81973
   6        3S          0.90469
   7        3PX         0.24004
   8        3PY         0.40962
   9        3PZ         0.45134
  10        4S         -0.11682
  11        4PX         0.03570
  12        4PY        -0.00438
  13        4PZ        -0.00034
  14        5XX         0.02368
  15        5YY        -0.00704
  16        5ZZ        -0.00251
  17        5XY         0.01498
  18        5XZ         0.01700
  19        5YZ         0.00710
  20 2   N  1S          1.99619
  21        2S          0.81885
  22        2PX         0.79354
  23        2PY         0.69307
  24        2PZ         0.81066
  25        3S          0.90440
  26        3PX         0.23908
  27        3PY         0.41767
  28        3PZ         0.44318
  29        4S         -0.11212
  30        4PX         0.03564
  31        4PY        -0.00087
  32        4PZ        -0.00356
  33        5XX         0.02371
  34        5YY        -0.00777
  35        5ZZ        -0.00132
  36        5XY         0.01526
  37        5XZ         0.01683
  38        5YZ         0.00653
  39 3   C  1S          1.99679
  40        2S          0.63538
  41        2PX         0.69981
  42        2PY         0.68926
  43        2PZ         0.66786
  44        3S          0.63720
  45        3PX         0.37016
  46        3PY         0.34534
  47        3PZ         0.28395
  48        4S          0.06198
  49        4PX         0.01373
  50        4PY         0.01340
  51        4PZ         0.01704
  52        5XX         0.02440
  53        5YY         0.02211
  54        5ZZ         0.02090
  55        5XY         0.00606
  56        5XZ         0.01147
  57        5YZ         0.00787
  58 4   H  1S          0.52842
  59        2S          0.24901
  60 5   H  1S          0.52778
  61        2S          0.27269
  62 6   H  1S          0.52804
  63        2S          0.28105
  64 7   C  1S          1.99679
  65        2S          0.63531
  66        2PX         0.69915
  67        2PY         0.68523
  68        2PZ         0.67229
  69        3S          0.63748
  70        3PX         0.36916
  71        3PY         0.33087
  72        3PZ         0.29945
  73        4S          0.06308
  74        4PX         0.01428
  75        4PY         0.01383
  76        4PZ         0.01623
  77        5XX         0.02499
  78        5YY         0.02107
  79        5ZZ         0.02001
  80        5XY         0.00677
  81        5XZ         0.00964
  82        5YZ         0.01031
  83 8   H  1S          0.52914
  84        2S          0.28617
  85 9   H  1S          0.52620
  86        2S          0.26551
  87 10  H  1S          0.52905
  88        2S          0.25199
          Condensed to atoms (all electrons):
               1          2          3          4          5          6
     1  N    6.475288   0.608735  -0.067433  -0.004882   0.014431  -0.006428
     2  N    0.608735   6.476951   0.171882  -0.059338  -0.028859  -0.015779
     3  C   -0.067433   0.171882   5.295145   0.427467   0.376291   0.385236
     4  H   -0.004882  -0.059338   0.427467   0.465344  -0.026018  -0.025922
     5  H    0.014431  -0.028859   0.376291  -0.026018   0.495955  -0.032549
     6  H   -0.006428  -0.015779   0.385236  -0.025922  -0.032549   0.505866
     7  C    0.169796  -0.067958  -0.062212   0.000745   0.001329  -0.003001
     8  H   -0.020862   0.000853   0.001023   0.000011  -0.002624   0.002694
     9  H   -0.023642   0.008794  -0.003312   0.000017   0.002451  -0.001013
    10  H   -0.059684  -0.006302   0.000635   0.000006   0.000062  -0.000020
               7          8          9         10
     1  N    0.169796  -0.020862  -0.023642  -0.059684
     2  N   -0.067958   0.000853   0.008794  -0.006302
     3  C   -0.062212   0.001023  -0.003312   0.000635
     4  H    0.000745   0.000011   0.000017   0.000006
     5  H    0.001329  -0.002624   0.002451   0.000062
     6  H   -0.003001   0.002694  -0.001013  -0.000020
     7  C    5.297691   0.378924   0.381742   0.428884
     8  H    0.378924   0.515506  -0.032339  -0.027877
     9  H    0.381742  -0.032339   0.483466  -0.024453
    10  H    0.428884  -0.027877  -0.024453   0.469787
 Mulliken charges:
               1
     1  N   -0.085318
     2  N   -0.088979
     3  C   -0.524720
     4  H    0.222569
     5  H    0.199532
     6  H    0.190917
     7  C   -0.525941
     8  H    0.184691
     9  H    0.208287
    10  H    0.218962
 Sum of Mulliken charges =   0.00000
 Mulliken charges with hydrogens summed into heavy atoms:
               1
     1  N   -0.085318
     2  N   -0.088979
     3  C    0.088297
     7  C    0.086000
 Electronic spatial extent (au):  <R**2>=            318.8098
 Charge=              0.0000 electrons
 Dipole moment (field-independent basis, Debye):
    X=              0.0149    Y=              1.6290    Z=             -2.8972  Tot=              3.3238
 Quadrupole moment (field-independent basis, Debye-Ang):
   XX=            -23.8817   YY=            -27.3892   ZZ=            -30.7638
   XY=             -0.0106   XZ=             -0.0629   YZ=              3.9128
 Traceless Quadrupole moment (field-independent basis, Debye-Ang):
   XX=              3.4632   YY=             -0.0443   ZZ=             -3.4189
   XY=             -0.0106   XZ=             -0.0629   YZ=              3.9128
 Octapole moment (field-independent basis, Debye-Ang**2):
  XXX=             -1.4382  YYY=             24.8330  ZZZ=            -42.7432  XYY=             -0.4327
  XXY=              7.8634  XXZ=            -12.9708  XZZ=             -0.6887  YZZ=             12.6773
  YYZ=            -14.7617  XYZ=              0.0888
 Hexadecapole moment (field-independent basis, Debye-Ang**3):
 XXXX=           -221.7117 YYYY=            -73.8587 ZZZZ=           -127.8788 XXXY=              2.9289
 XXXZ=              0.7007 YYYX=              5.2354 YYYZ=             29.1671 ZZZX=              2.3796
 ZZZY=             34.7803 XXYY=            -55.0376 XXZZ=            -65.4966 YYZZ=            -37.1958
 XXYZ=             11.7808 YYXZ=              0.5878 ZZXY=              1.8607
 N-N= 1.227194677608D+02 E-N=-6.846928698459D+02  KE= 1.878490574015D+02
 Orbital energies and kinetic energies (alpha):
                                 1                 2
   1         O                 0.000000         22.200964
   2         O                 0.000000         22.173505
   3         O                 0.000000         16.003858
   4         O                 0.000000         16.003874
   5         O                 0.000000          2.065821
   6         O                 0.000000          1.433275
   7         O                 0.000000          1.456574
   8         O                 0.000000          1.454069
   9         O                 0.000000          1.370844
  10         O                 0.000000          1.257753
  11         O                 0.000000          1.342317
  12         O                 0.000000          1.021560
  13         O                 0.000000          1.111596
  14         O                 0.000000          1.244549
  15         O                 0.000000          1.587270
  16         O                 0.000000          2.144221
  17         V                 0.000000          2.577323
  18         V                 0.000000          0.228715
  19         V                 0.000000          0.157434
  20         V                 0.000000          0.188300
  21         V                 0.000000          0.166913
  22         V                 0.000000          0.185735
  23         V                 0.000000          0.184807
  24         V                 0.000000          0.343046
  25         V                 0.000000          0.337098
  26         V                 0.000000          0.244975
  27         V                 0.000000          0.361907
  28         V                 0.000000          0.756274
  29         V                 0.000000          0.319515
  30         V                 0.000000          0.279178
  31         V                 0.000000          0.730258
  32         V                 0.000000          0.497344
  33         V                 0.000000          1.250258
  34         V                 0.000000          0.593622
  35         V                 0.000000          1.026970
  36         V                 0.000000          0.863535
  37         V                 0.000000          1.158726
  38         V                 0.000000          1.006504
  39         V                 0.000000          0.841439
  40         V                 0.000000          1.061254
  41         V                 0.000000          1.659526
  42         V                 0.000000          2.322369
  43         V                 0.000000          1.935951
  44         V                 0.000000          1.889742
  45         V                 0.000000          2.270706
  46         V                 0.000000          2.894468
  47         V                 0.000000          2.395212
  48         V                 0.000000          1.880549
  49         V                 0.000000          2.437073
  50         V                 0.000000          2.533482
  51         V                 0.000000          2.636427
  52         V                 0.000000          2.595157
  53         V                 0.000000          2.751939
  54         V                 0.000000          2.930980
  55         V                 0.000000          2.647809
  56         V                 0.000000          2.610208
  57         V                 0.000000          2.681469
  58         V                 0.000000          2.829916
  59         V                 0.000000          2.641468
  60         V                 0.000000          2.961413
  61         V                 0.000000          2.183972
  62         V                 0.000000          2.375286
  63         V                 0.000000          2.577668
  64         V                 0.000000          2.612501
  65         V                 0.000000          2.683236
  66         V                 0.000000          2.740324
  67         V                 0.000000          2.698379
  68         V                 0.000000          2.692505
  69         V                 0.000000          2.973827
  70         V                 0.000000          3.439054
  71         V                 0.000000          3.297781
  72         V                 0.000000          3.257061
  73         V                 0.000000          3.856513
  74         V                 0.000000          3.547533
  75         V                 0.000000          3.693860
  76         V                 0.000000          3.554629
  77         V                 0.000000          3.698413
  78         V                 0.000000          3.747815
  79         V                 0.000000          4.053043
  80         V                 0.000000          4.252862
  81         V                 0.000000          4.007498
  82         V                 0.000000          3.936427
  83         V                 0.000000          5.116325
  84         V                 0.000000          4.751265
  85         V                 0.000000         10.393284
  86         V                 0.000000         10.586256
  87         V                 0.000000         10.215551
  88         V                 0.000000         10.457518
 Total kinetic energy from orbitals= 1.877440996215D+02
 No NMR shielding tensors so no spin-rotation constants.
 Leave Link  601 at Tue Jan  6 12:47:50 2026, MaxMem=   671088640 cpu:         0.4
 (Enter /home/huangdeqing/softwares/g09-D01/g09/l9999.exe)


 A DANDELION FROM A LOVER MEANS MORE THAN AN ORCHID FROM A FRIEND.
 Error termination request processed by link 9999.
 Error termination via Lnk1e in /home/huangdeqing/softwares/g09-D01/g09/l9999.exe at Tue Jan  6 12:47:51 2026.
 Job cpu time:       0 days  0 hours 12 minutes 47.7 seconds.
 File lengths (MBytes):  RWF=     85 Int=      0 D2E=      0 Chk=      2 Scr=      1
