 Entering Gaussian System, Link 0=g09
 Initial command:
 /home/huangdeqing/softwares/g09-D01/g09/l1.exe "/home/huangdeqing/Gauss_scrdir/Gau-116579.inp" -scrdir="/home/huangdeqing/Gauss_scrdir/"
 Entering Link 1 = /home/huangdeqing/softwares/g09-D01/g09/l1.exe PID=    116580.
  
 Copyright (c) 1988,1990,1992,1993,1995,1998,2003,2009,2013,
            Gaussian, Inc.  All Rights Reserved.
  
 This is part of the Gaussian(R) 09 program.  It is based on
 the Gaussian(R) 03 system (copyright 2003, Gaussian, Inc.),
 the Gaussian(R) 98 system (copyright 1998, Gaussian, Inc.),
 the Gaussian(R) 94 system (copyright 1995, Gaussian, Inc.),
 the Gaussian 92(TM) system (copyright 1992, Gaussian, Inc.),
 the Gaussian 90(TM) system (copyright 1990, Gaussian, Inc.),
 the Gaussian 88(TM) system (copyright 1988, Gaussian, Inc.),
 the Gaussian 86(TM) system (copyright 1986, Carnegie Mellon
 University), and the Gaussian 82(TM) system (copyright 1983,
 Carnegie Mellon University). Gaussian is a federally registered
 trademark of Gaussian, Inc.
  
 This software contains proprietary and confidential information,
 including trade secrets, belonging to Gaussian, Inc.
  
 This software is provided under written license and may be
 used, copied, transmitted, or stored only in accord with that
 written license.
  
 The following legend is applicable only to US Government
 contracts under FAR:
  
                    RESTRICTED RIGHTS LEGEND
  
 Use, reproduction and disclosure by the US Government is
 subject to restrictions as set forth in subparagraphs (a)
 and (c) of the Commercial Computer Software - Restricted
 Rights clause in FAR 52.227-19.
  
 Gaussian, Inc.
 340 Quinnipiac St., Bldg. 40, Wallingford CT 06492
  
  
 ---------------------------------------------------------------
 Warning -- This program may not be used in any manner that
 competes with the business of Gaussian, Inc. or will provide
 assistance to any competitor of Gaussian, Inc.  The licensee
 of this program is prohibited from giving any competitor of
 Gaussian, Inc. access to this program.  By using this program,
 the user acknowledges that Gaussian, Inc. is engaged in the
 business of creating and licensing software in the field of
 computational chemistry and represents and warrants to the
 licensee that it is not a competitor of Gaussian, Inc. and that
 it will not use this program in any manner prohibited above.
 ---------------------------------------------------------------
  

 Cite this work as:
 Gaussian 09, Revision D.01,
 M. J. Frisch, G. W. Trucks, H. B. Schlegel, G. E. Scuseria, 
 M. A. Robb, J. R. Cheeseman, G. Scalmani, V. Barone, B. Mennucci, 
 G. A. Petersson, H. Nakatsuji, M. Caricato, X. Li, H. P. Hratchian, 
 A. F. Izmaylov, J. Bloino, G. Zheng, J. L. Sonnenberg, M. Hada, 
 M. Ehara, K. Toyota, R. Fukuda, J. Hasegawa, M. Ishida, T. Nakajima, 
 Y. Honda, O. Kitao, H. Nakai, T. Vreven, J. A. Montgomery, Jr., 
 J. E. Peralta, F. Ogliaro, M. Bearpark, J. J. Heyd, E. Brothers, 
 K. N. Kudin, V. N. Staroverov, T. Keith, R. Kobayashi, J. Normand, 
 K. Raghavachari, A. Rendell, J. C. Burant, S. S. Iyengar, J. Tomasi, 
 M. Cossi, N. Rega, J. M. Millam, M. Klene, J. E. Knox, J. B. Cross, 
 V. Bakken, C. Adamo, J. Jaramillo, R. Gomperts, R. E. Stratmann, 
 O. Yazyev, A. J. Austin, R. Cammi, C. Pomelli, J. W. Ochterski, 
 R. L. Martin, K. Morokuma, V. G. Zakrzewski, G. A. Voth, 
 P. Salvador, J. J. Dannenberg, S. Dapprich, A. D. Daniels, 
 O. Farkas, J. B. Foresman, J. V. Ortiz, J. Cioslowski, 
 and D. J. Fox, Gaussian, Inc., Wallingford CT, 2013.
 
 ******************************************
 Gaussian 09:  ES64L-G09RevD.01 24-Apr-2013
                 5-Jan-2026 
 ******************************************
 %nprocshared=5
 Will use up to    5 processors via shared memory.
 %mem=5GB
 %chk=/data/huangdeqing/azm/QM/nn/S0_cis/chk/+40.chk
 ----------------------------------------------------------------------
 #p opt=(calcfc,MaxStep=5,MaxCycles=20,tight,gdiis,ModRedundant) freq=(
 HPModes,SaveNormalModes) scf=tight Pop=Full casscf(6,4)/6-31+g(d) geom
 =connectivity nosymm field=y+40
 ----------------------------------------------------------------------

 Warning!  Use of Opt=GDIIS is deprecated since it is seldom a good choice.

 1/6=20,7=10,8=5,10=4,18=120,19=11,38=1,57=2/1,3;
 2/9=110,12=2,15=1,17=6,18=5,40=1/2;
 3/5=1,6=6,7=11,14=2,15=40,16=1,25=1,32=1,71=2,116=101,140=1/1,2,3;
 4/17=6,18=4/1,5;
 5/5=2,17=1000200,32=2,38=5/10;
 8/6=4,10=90,11=11/1;
 11/31=1,42=1,45=1/1;
 10/6=1,13=1,31=1/3;
 6/7=3,28=1/1;
 7/10=1,18=20,25=1,30=1,92=1/1,2,3,16;
 1/6=20,7=10,8=5,10=4,18=20,19=11/3(2);
 2/9=110,15=1/2;
 99//99;
 2/9=110,15=1/2;
 3/5=1,6=6,7=11,14=2,15=40,16=1,25=1,32=1,71=1,116=101/1,2,3;
 4/5=5,16=3,17=6,18=4,69=1/1,5;
 5/5=2,17=1000000,23=1,32=2,38=5/10;
 7/30=1,92=1/1,2,3,16;
 1/6=20,7=10,8=5,18=20,19=11/3(-5);
 2/9=110,15=1/2;
 6/7=3,19=2,28=1/1;
 99/9=1/99;
 Leave Link    1 at Mon Jan  5 13:39:46 2026, MaxMem=   671088640 cpu:         0.3
 (Enter /home/huangdeqing/softwares/g09-D01/g09/l101.exe)
 -------------
 S0_cis_nn_+40
 -------------
 Symbolic Z-matrix:
 Charge =  0 Multiplicity = 1
 N                    -0.60218  -0.0358    1.28528 
 N                     0.6377   -0.0358    1.28528 
 C                     1.3795    0.01003   0.02225 
 H                     2.42944   0.06406   0.26826 
 H                     1.2003   -0.89042  -0.55795 
 H                     1.1169    0.87237  -0.57942 
 C                    -1.34398   0.01003   0.02225 
 H                    -1.08139   0.87237  -0.57941 
 H                    -1.16477  -0.89042  -0.55796 
 H                    -2.39392   0.06404   0.26826 
 
 The following ModRedundant input section has been read:
 D       7       1       2       3 F                                           
 
 NAtoms=     10 NQM=       10 NQMF=       0 NMMI=      0 NMMIF=      0
                NMic=       0 NMicF=      0.
                    Isotopes and Nuclear Properties:
 (Nuclear quadrupole moments (NQMom) in fm**2, nuclear magnetic moments (NMagM)
  in nuclear magnetons)

  Atom         1           2           3           4           5           6           7           8           9          10
 IAtWgt=          14          14          12           1           1           1          12           1           1           1
 AtmWgt=  14.0030740  14.0030740  12.0000000   1.0078250   1.0078250   1.0078250  12.0000000   1.0078250   1.0078250   1.0078250
 NucSpn=           2           2           0           1           1           1           0           1           1           1
 AtZEff=   0.0000000   0.0000000   0.0000000   0.0000000   0.0000000   0.0000000   0.0000000   0.0000000   0.0000000   0.0000000
 NQMom=    2.0440000   2.0440000   0.0000000   0.0000000   0.0000000   0.0000000   0.0000000   0.0000000   0.0000000   0.0000000
 NMagM=    0.4037610   0.4037610   0.0000000   2.7928460   2.7928460   2.7928460   0.0000000   2.7928460   2.7928460   2.7928460
 AtZNuc=   7.0000000   7.0000000   6.0000000   1.0000000   1.0000000   1.0000000   6.0000000   1.0000000   1.0000000   1.0000000
 Leave Link  101 at Mon Jan  5 13:39:46 2026, MaxMem=   671088640 cpu:         2.0
 (Enter /home/huangdeqing/softwares/g09-D01/g09/l103.exe)

 GradGradGradGradGradGradGradGradGradGradGradGradGradGradGradGradGradGrad
 Berny optimization.
 Initialization pass.
                           ----------------------------
                           !    Initial Parameters    !
                           ! (Angstroms and Degrees)  !
 --------------------------                            --------------------------
 ! Name  Definition              Value          Derivative Info.                !
 --------------------------------------------------------------------------------
 ! R1    R(1,2)                  1.2399         calculate D2E/DX2 analytically  !
 ! R2    R(1,7)                  1.4655         calculate D2E/DX2 analytically  !
 ! R3    R(2,3)                  1.4655         calculate D2E/DX2 analytically  !
 ! R4    R(3,4)                  1.0797         calculate D2E/DX2 analytically  !
 ! R5    R(3,5)                  1.0861         calculate D2E/DX2 analytically  !
 ! R6    R(3,6)                  1.0838         calculate D2E/DX2 analytically  !
 ! R7    R(7,8)                  1.0838         calculate D2E/DX2 analytically  !
 ! R8    R(7,9)                  1.0861         calculate D2E/DX2 analytically  !
 ! R9    R(7,10)                 1.0797         calculate D2E/DX2 analytically  !
 ! A1    A(2,1,7)              120.4101         calculate D2E/DX2 analytically  !
 ! A2    A(1,2,3)              120.4101         calculate D2E/DX2 analytically  !
 ! A3    A(2,3,4)              107.3025         calculate D2E/DX2 analytically  !
 ! A4    A(2,3,5)              110.5468         calculate D2E/DX2 analytically  !
 ! A5    A(2,3,6)              112.3772         calculate D2E/DX2 analytically  !
 ! A6    A(4,3,5)              108.8832         calculate D2E/DX2 analytically  !
 ! A7    A(4,3,6)              108.8016         calculate D2E/DX2 analytically  !
 ! A8    A(5,3,6)              108.8524         calculate D2E/DX2 analytically  !
 ! A9    A(1,7,8)              112.3771         calculate D2E/DX2 analytically  !
 ! A10   A(1,7,9)              110.5469         calculate D2E/DX2 analytically  !
 ! A11   A(1,7,10)             107.3025         calculate D2E/DX2 analytically  !
 ! A12   A(8,7,9)              108.8524         calculate D2E/DX2 analytically  !
 ! A13   A(8,7,10)             108.8015         calculate D2E/DX2 analytically  !
 ! A14   A(9,7,10)             108.8833         calculate D2E/DX2 analytically  !
 ! D1    D(7,1,2,3)              0.0001         frozen, calculate D2E/DX2 analyt!
 ! D2    D(2,1,7,8)            -56.9443         calculate D2E/DX2 analytically  !
 ! D3    D(2,1,7,9)             64.8924         calculate D2E/DX2 analytically  !
 ! D4    D(2,1,7,10)          -176.5024         calculate D2E/DX2 analytically  !
 ! D5    D(1,2,3,4)            176.5015         calculate D2E/DX2 analytically  !
 ! D6    D(1,2,3,5)            -64.8934         calculate D2E/DX2 analytically  !
 ! D7    D(1,2,3,6)             56.9432         calculate D2E/DX2 analytically  !
 --------------------------------------------------------------------------------
 Trust Radius=5.00D-02 FncErr=1.00D-07 GrdErr=1.00D-07
 Number of steps in this run=     20 maximum allowed number of steps=    100.
 GradGradGradGradGradGradGradGradGradGradGradGradGradGradGradGradGradGrad

 Leave Link  103 at Mon Jan  5 13:39:46 2026, MaxMem=   671088640 cpu:         0.0
 (Enter /home/huangdeqing/softwares/g09-D01/g09/l202.exe)
                          Input orientation:                          
 ---------------------------------------------------------------------
 Center     Atomic      Atomic             Coordinates (Angstroms)
 Number     Number       Type             X           Y           Z
 ---------------------------------------------------------------------
      1          7           0       -0.602177   -0.035796    1.285277
      2          7           0        0.637698   -0.035796    1.285277
      3          6           0        1.379498    0.010035    0.022251
      4          1           0        2.429439    0.064055    0.268260
      5          1           0        1.200301   -0.890424   -0.557951
      6          1           0        1.116902    0.872366   -0.579416
      7          6           0       -1.343978    0.010032    0.022252
      8          1           0       -1.081395    0.872374   -0.579408
      9          1           0       -1.164768   -0.890418   -0.557958
     10          1           0       -2.393920    0.064037    0.268262
 ---------------------------------------------------------------------
                    Distance matrix (angstroms):
                    1          2          3          4          5
     1  N    0.000000
     2  N    1.239875   0.000000
     3  C    2.350398   1.465470   0.000000
     4  H    3.199217   2.062676   1.079729   0.000000
     5  H    2.716028   2.108175   1.086081   1.761941   0.000000
     6  H    2.693895   2.128726   1.083778   1.759169   1.764892
     7  C    1.465470   2.350398   2.723476   3.781814   2.760582
     8  H    2.128725   2.693901   2.676120   3.701064   2.883410
     9  H    2.108175   2.716023   2.760570   3.809459   2.365069
    10  H    2.062675   3.199217   3.781814   4.823359   3.809468
                    6          7          8          9         10
     6  H    0.000000
     7  C    2.676108   0.000000
     8  H    2.198297   1.083779   0.000000
     9  H    2.883381   1.086080   1.764893   0.000000
    10  H    3.701057   1.079729   1.759169   1.761941   0.000000
 Symmetry turned off by external request.
 Stoichiometry    C2H6N2
 Framework group  C1[X(C2H6N2)]
 Deg. of freedom    24
 Full point group                 C1      NOp   1
 Rotational constants (GHZ):     16.8111894      6.7040631      5.0962313
 Leave Link  202 at Mon Jan  5 13:39:46 2026, MaxMem=   671088640 cpu:         0.0
 (Enter /home/huangdeqing/softwares/g09-D01/g09/l301.exe)
 Standard basis: 6-31+G(d) (6D, 7F)
 Ernie: Thresh=  0.10000D-02 Tol=  0.10000D-05 Strict=F.
 The following finite field(s) will be applied:
 An electric field of              0.0000  0.0040  0.0000
    88 basis functions,   152 primitive gaussians,    88 cartesian basis functions
    16 alpha electrons       16 beta electrons
       nuclear repulsion energy       122.7784418835 Hartrees.
 IExCor=    0 DFT=F Ex=HF Corr=None ExCW=0 ScaHFX=  1.000000
 ScaDFX=  1.000000  1.000000  1.000000  1.000000 ScalE2=  1.000000  1.000000
 IRadAn=      0 IRanWt=     -1 IRanGd=            0 ICorTp=0 IEmpDi=  4
 NAtoms=   10 NActive=   10 NUniq=   10 SFac= 1.00D+00 NAtFMM=   60 NAOKFM=F Big=F
 Integral buffers will be    131072 words long.
 Regular integral format.
 Two-electron integral symmetry is turned off.
 Leave Link  301 at Mon Jan  5 13:39:46 2026, MaxMem=   671088640 cpu:         0.2
 (Enter /home/huangdeqing/softwares/g09-D01/g09/l302.exe)
 NPDir=0 NMtPBC=     1 NCelOv=     1 NCel=       1 NClECP=     1 NCelD=      1
         NCelK=      1 NCelE2=     1 NClLst=     1 CellRange=     0.0.
 One-electron integrals computed using PRISM.
 The smallest eigenvalue of the overlap matrix is  1.303D-04
 NBasis=    88 RedAO= F EigKep=  0.00D+00  NBF=    88
 NBsUse=    88 1.00D-04 EigRej=  0.00D+00 NBFU=    88
 Leave Link  302 at Mon Jan  5 13:39:46 2026, MaxMem=   671088640 cpu:         0.7
 (Enter /home/huangdeqing/softwares/g09-D01/g09/l303.exe)
 DipDrv:  MaxL=1.
 The nuclear repulsion energy is now       122.7762592774 hartrees.
 Leave Link  303 at Mon Jan  5 13:39:46 2026, MaxMem=   671088640 cpu:         0.2
 (Enter /home/huangdeqing/softwares/g09-D01/g09/l401.exe)
 ExpMin= 4.38D-02 ExpMax= 4.17D+03 ExpMxC= 6.27D+02 IAcc=2 IRadAn=         4 AccDes= 0.00D+00
 Harris functional with IExCor=  205 and IRadAn=       4 diagonalized for initial guess.
 HarFok:  IExCor=  205 AccDes= 0.00D+00 IRadAn=         4 IDoV= 1 UseB2=F ITyADJ=14
 ICtDFT=  3500011 ScaDFX=  1.000000  1.000000  1.000000  1.000000
 FoFCou: FMM=F IPFlag=           0 FMFlag=      100000 FMFlg1=           0
         NFxFlg=           0 DoJE=T BraDBF=F KetDBF=T FulRan=T
         wScrn=  0.000000 ICntrl=     500 IOpCl=  0 I1Cent=   200000004 NGrid=           0
         NMat0=    1 NMatS0=      1 NMatT0=    0 NMatD0=    1 NMtDS0=    0 NMtDT0=    0
 Symmetry not used in FoFCou.
 Harris En= -188.341605156799    
 JPrj=0 DoOrth=F DoCkMO=F.
 Leave Link  401 at Mon Jan  5 13:39:46 2026, MaxMem=   671088640 cpu:         0.8
 (Enter /home/huangdeqing/softwares/g09-D01/g09/l405.exe)
          Truncation Level=               99999
          a=  3          b=  0          c=  1
          a=N/2 - s   b=2s   c=n- (a+b)
          no. active orbitals (n)  4
          no. active ELECTRONS (N)=  6
                                                  IRREPS TO BE RETAINED = 1
                                                  GROUP IRREP. MULT. TABLE
                                                      1
                                                  IRREP. LABELS FOR ORBITALS
                                                   1 1 1 1
          BOTTOM WEIGHT= 12     TOP WEIGHT= 18
          Configuration         1 Symmetry 1 1110
          Configuration         2 Symmetry 1 11ab
          Configuration         3 Symmetry 1 1101
          Configuration         4 Symmetry 1 1a1b
          Configuration         5 Symmetry 1 1ab1
          Configuration         6 Symmetry 1 a11b
          Configuration         7 Symmetry 1 1011
          Configuration         8 Symmetry 1 a1b1
          Configuration         9 Symmetry 1 ab11
          Configuration        10 Symmetry 1 0111
          NO OF BASIS FUNCTIONS =        10 NO TO BE DELETED =    0
 CI Matrix Elements calculated here
          NO. OF CONFIGURATIONS IN REFERENCE SPACE =    1
                                   SECONDARY SPACE =   10
                                   TERTIARY SPACE =   10
          NO. OF ORBITALS =    4
          NO. OF ELECTRONS =    6
          NO. OF WEIGHTS =    7
          REFERENCE STATE CONFIGURATIONS ARE:     0
          NO. OF CORE ORBITALS =    0
          OPTION:  NON-DIAGONAL HOLE LINE INTERACTIONS INCLUDED
 Len28=        2263 LenMCI=         885.
 Leave Link  405 at Mon Jan  5 13:39:49 2026, MaxMem=   671088640 cpu:        12.6
 (Enter /home/huangdeqing/softwares/g09-D01/g09/l510.exe)
 Enter MCSCF program.
 NO. OF ORBITALS = 88     NO. OF CORE-ORBITALS = 13
 NO. OF VALENCE-ORBITALS =  4      NO. OF VIRTUAL-ORBITALS = 71
 USED ACCURACY IN CHECKING CONVERGENCE =  1.00D-08
  Memory needed for Incore Integrals:                15817494
  Memory needed for direct integral evaluation:                 6435759
  Integrals KEPT IN MEMORY
 IBUJAK length=                 2387044
 Integral file not found: evaluate integrals 
 FoFCou: FMM=F IPFlag=           0 FMFlag=           0 FMFlg1=           0
         NFxFlg=           0 DoJE=F BraDBF=F KetDBF=F FulRan=T
         wScrn=  0.000000 ICntrl=     600 IOpCl=  0 I1Cent=           0 NGrid=           0
         NMat0=    1 NMatS0=      1 NMatT0=    0 NMatD0=    1 NMtDS0=    0 NMtDT0=    0
 Symmetry not used in FoFCou.
 First order MCSCF but last itn is Quadratic
 Defining IBUGAM
 2ND ORD PT ENERGY     CV   -0.014245   CU   -0.199187   UV   -0.043564
 TOTAL                    -188.166843
 WARNING! : large rotation  I  J  =                       14
                       11
 Step scaled by    0.3158476368229545     
 ITN=  1 MaxIt= 64 E=   -187.9098464133 DE=-1.88D+02 Acc= 1.00D-08 Lan=  0
 ITN=  2 MaxIt= 64 E=   -188.0194438723 DE=-1.10D-01 Acc= 1.00D-08 Lan=  0
 ITN=  3 MaxIt= 64 E=   -188.0731966265 DE=-5.38D-02 Acc= 1.00D-08 Lan=  0
 ITN=  4 MaxIt= 64 E=   -188.0879423818 DE=-1.47D-02 Acc= 1.00D-08 Lan=  0
 ITN=  5 MaxIt= 64 E=   -188.0935059158 DE=-5.56D-03 Acc= 1.00D-08 Lan=  0
 ITN=  6 MaxIt= 64 E=   -188.0960667046 DE=-2.56D-03 Acc= 1.00D-08 Lan=  0
 ITN=  7 MaxIt= 64 E=   -188.0965867794 DE=-5.20D-04 Acc= 1.00D-08 Lan=  0
 ITN=  8 MaxIt= 64 E=   -188.0966764894 DE=-8.97D-05 Acc= 1.00D-08 Lan=  0
 ITN=  9 MaxIt= 64 E=   -188.0967032009 DE=-2.67D-05 Acc= 1.00D-08 Lan=  0
 ITN= 10 MaxIt= 64 E=   -188.0967135790 DE=-1.04D-05 Acc= 1.00D-08 Lan=  0
 ITN= 11 MaxIt= 64 E=   -188.0967181828 DE=-4.60D-06 Acc= 1.00D-08 Lan=  0
 ITN= 12 MaxIt= 64 E=   -188.0967203871 DE=-2.20D-06 Acc= 1.00D-08 Lan=  0
 ITN= 13 MaxIt= 64 E=   -188.0967214990 DE=-1.11D-06 Acc= 1.00D-08 Lan=  0
 ITN= 14 MaxIt= 64 E=   -188.0967220816 DE=-5.83D-07 Acc= 1.00D-08 Lan=  0
 ITN= 15 MaxIt= 64 E=   -188.0967223960 DE=-3.14D-07 Acc= 1.00D-08 Lan=  0
 ITN= 16 MaxIt= 64 E=   -188.0967225696 DE=-1.74D-07 Acc= 1.00D-08 Lan=  0
 ITN= 17 MaxIt= 64 E=   -188.0967226670 DE=-9.74D-08 Acc= 1.00D-08 Lan=  0
 ITN= 18 MaxIt= 64 E=   -188.0967227224 DE=-5.54D-08 Acc= 1.00D-08 Lan=  0
 ITN= 19 MaxIt= 64 E=   -188.0967227542 DE=-3.18D-08 Acc= 1.00D-08 Lan=  0
 ITN= 20 MaxIt= 64 E=   -188.0967227726 DE=-1.84D-08 Acc= 1.00D-08 Lan=  0
 ITN= 21 MaxIt= 64 E=   -188.0967227833 DE=-1.07D-08 Acc= 1.00D-08 Lan=  0
 ITN= 22 MaxIt= 64 E=   -188.0967227896 DE=-6.24D-09 Acc= 1.00D-08 Lan=  0
 ... Do an extra-iteration for final printing.


                    EIGENVALUES AND  EIGENVECTORS OF CI MATRIX



   ( 1)     EIGENVALUE    -188.0967227932
 (    1) 0.9721987 (    7)-0.2267485 (    3)-0.0579919 (   10)-0.0071960 (    2)-0.0000235 (    9)-0.0000113 (    5) 0.0000000
 (    6) 0.0000000 (    8) 0.0000000 (    4) 0.0000000 (
 Final one electron symbolic density matrix:
                1             2             3             4 
      1  0.199990D+01
      2  0.745497D-05  0.189717D+01
      3  0.462408D-10 -0.109813D-07  0.199327D+01
      4  0.267684D-07 -0.420211D-09 -0.606697D-04  0.109659D+00
 ***REDUNDANT VALENCE-CORE PARM** IU=           1
 ***REDUNDANT VALENCE-CORE PARM** IU=           3
 MCSCF converged.
 Leave Link  510 at Mon Jan  5 13:40:04 2026, MaxMem=   671088640 cpu:        69.3
 (Enter /home/huangdeqing/softwares/g09-D01/g09/l801.exe)
 Range of M.O.s used for correlation:     1    88
 NBasis=    88 NAE=    16 NBE=    16 NFC=     0 NFV=     0
 NROrb=     88 NOA=    16 NOB=    16 NVA=    72 NVB=    72

 **** Warning!!: The largest alpha MO coefficient is  0.30143917D+02

 Leave Link  801 at Mon Jan  5 13:40:05 2026, MaxMem=   671088640 cpu:         0.1
 (Enter /home/huangdeqing/softwares/g09-D01/g09/l1101.exe)
 Not using compressed storage, NAtomX=    10.
 Will process     10 centers per pass.
 Leave Link 1101 at Mon Jan  5 13:40:05 2026, MaxMem=   671088640 cpu:         0.6
 (Enter /home/huangdeqing/softwares/g09-D01/g09/l1003.exe)
 NO. OF ORBITALS         = 88      NO. OF CORE-ORBITALS    = 13
 NO. OF VALENCE-ORBITALS =  4      NO. OF VIRTUAL-ORBITALS = 71
 One call to fofjk will do it.
 FoFJK:  IHMeth= 0 ICntrl=    3500 DoSepK=F KAlg= 0 I1Cent=   0 FoldK=F
 IRaf=         0 NMat=   2 IRICut=       1 DoRegI=T DoRafI=F ISym2E= 0.
 FoFCou: FMM=F IPFlag=           0 FMFlag=      100000 FMFlg1=           0
         NFxFlg=           0 DoJE=F BraDBF=F KetDBF=F FulRan=T
         wScrn=  0.000000 ICntrl=    3500 IOpCl=  1 I1Cent=           0 NGrid=           0
         NMat0=    2 NMatS0=      2 NMatT0=    0 NMatD0=    2 NMtDS0=    0 NMtDT0=    0
 Symmetry not used in FoFCou.
 JobTyp= 0 Pass  1:  I=   1 to   4  IAt=   2 to  10.
 ***REDUNDANT VALENCE-CORE PARM** IU=         1
 ***REDUNDANT VALENCE-CORE PARM** IU=         3
 ***REDUNDANT VALENCE-CORE PARM** IU=         1
 ***REDUNDANT VALENCE-CORE PARM** IU=         3
 ***REDUNDANT VALENCE-CORE PARM** IU=         1
 ***REDUNDANT VALENCE-CORE PARM** IU=         3
 ***REDUNDANT VALENCE-CORE PARM** IU=         1
 ***REDUNDANT VALENCE-CORE PARM** IU=         3
 ***REDUNDANT VALENCE-CORE PARM** IU=         1
 ***REDUNDANT VALENCE-CORE PARM** IU=         3
 ***REDUNDANT VALENCE-CORE PARM** IU=         1
 ***REDUNDANT VALENCE-CORE PARM** IU=         3
 ***REDUNDANT VALENCE-CORE PARM** IU=         1
 ***REDUNDANT VALENCE-CORE PARM** IU=         3
 ***REDUNDANT VALENCE-CORE PARM** IU=         1
 ***REDUNDANT VALENCE-CORE PARM** IU=         3
 ***REDUNDANT VALENCE-CORE PARM** IU=         1
 ***REDUNDANT VALENCE-CORE PARM** IU=         3
 ***REDUNDANT VALENCE-CORE PARM** IU=         1
 ***REDUNDANT VALENCE-CORE PARM** IU=         3
 ***REDUNDANT VALENCE-CORE PARM** IU=         1
 ***REDUNDANT VALENCE-CORE PARM** IU=         3
 ***REDUNDANT VALENCE-CORE PARM** IU=         1
 ***REDUNDANT VALENCE-CORE PARM** IU=         3
 ***REDUNDANT VALENCE-CORE PARM** IU=         1
 ***REDUNDANT VALENCE-CORE PARM** IU=         3
 ***REDUNDANT VALENCE-CORE PARM** IU=         1
 ***REDUNDANT VALENCE-CORE PARM** IU=         3
 ***REDUNDANT VALENCE-CORE PARM** IU=         1
 ***REDUNDANT VALENCE-CORE PARM** IU=         3
 ***REDUNDANT VALENCE-CORE PARM** IU=         1
 ***REDUNDANT VALENCE-CORE PARM** IU=         3
 ***REDUNDANT VALENCE-CORE PARM** IU=         1
 ***REDUNDANT VALENCE-CORE PARM** IU=         3
 ***REDUNDANT VALENCE-CORE PARM** IU=         1
 ***REDUNDANT VALENCE-CORE PARM** IU=         3
 ***REDUNDANT VALENCE-CORE PARM** IU=         1
 ***REDUNDANT VALENCE-CORE PARM** IU=         3
 ***REDUNDANT VALENCE-CORE PARM** IU=         1
 ***REDUNDANT VALENCE-CORE PARM** IU=         3
 ***REDUNDANT VALENCE-CORE PARM** IU=         1
 ***REDUNDANT VALENCE-CORE PARM** IU=         3
 ***REDUNDANT VALENCE-CORE PARM** IU=         1
 ***REDUNDANT VALENCE-CORE PARM** IU=         3
 ***REDUNDANT VALENCE-CORE PARM** IU=         1
 ***REDUNDANT VALENCE-CORE PARM** IU=         3
 ***REDUNDANT VALENCE-CORE PARM** IU=         1
 ***REDUNDANT VALENCE-CORE PARM** IU=         3
 ***REDUNDANT VALENCE-CORE PARM** IU=         1
 ***REDUNDANT VALENCE-CORE PARM** IU=         3
 ***REDUNDANT VALENCE-CORE PARM** IU=         1
 ***REDUNDANT VALENCE-CORE PARM** IU=         3
 ***REDUNDANT VALENCE-CORE PARM** IU=         1
 ***REDUNDANT VALENCE-CORE PARM** IU=         3
 Leave Link 1003 at Mon Jan  5 13:40:09 2026, MaxMem=   671088640 cpu:        18.2
 (Enter /home/huangdeqing/softwares/g09-D01/g09/l601.exe)
 Copying SCF densities to generalized density rwf, IOpCl= 0 IROHF=3.

 **********************************************************************

            Population analysis using the SCF density.

 **********************************************************************

 Alpha  occ. eigenvalues --    0.00000   0.00000   0.00000   0.00000   0.00000
 Alpha  occ. eigenvalues --    0.00000   0.00000   0.00000   0.00000   0.00000
 Alpha  occ. eigenvalues --    0.00000   0.00000   0.00000   0.00000   0.00000
 Alpha  occ. eigenvalues --    0.00000
 Alpha virt. eigenvalues --    0.00000   0.00000   0.00000   0.00000   0.00000
 Alpha virt. eigenvalues --    0.00000   0.00000   0.00000   0.00000   0.00000
 Alpha virt. eigenvalues --    0.00000   0.00000   0.00000   0.00000   0.00000
 Alpha virt. eigenvalues --    0.00000   0.00000   0.00000   0.00000   0.00000
 Alpha virt. eigenvalues --    0.00000   0.00000   0.00000   0.00000   0.00000
 Alpha virt. eigenvalues --    0.00000   0.00000   0.00000   0.00000   0.00000
 Alpha virt. eigenvalues --    0.00000   0.00000   0.00000   0.00000   0.00000
 Alpha virt. eigenvalues --    0.00000   0.00000   0.00000   0.00000   0.00000
 Alpha virt. eigenvalues --    0.00000   0.00000   0.00000   0.00000   0.00000
 Alpha virt. eigenvalues --    0.00000   0.00000   0.00000   0.00000   0.00000
 Alpha virt. eigenvalues --    0.00000   0.00000   0.00000   0.00000   0.00000
 Alpha virt. eigenvalues --    0.00000   0.00000   0.00000   0.00000   0.00000
 Alpha virt. eigenvalues --    0.00000   0.00000   0.00000   0.00000   0.00000
 Alpha virt. eigenvalues --    0.00000   0.00000   0.00000   0.00000   0.00000
 Alpha virt. eigenvalues --    0.00000   0.00000
     Molecular Orbital Coefficients:
                           1         2         3         4         5
                           O         O         O         O         O
     Eigenvalues --     0.00000   0.00000   0.00000   0.00000   0.00000
   1 1   N  1S          0.70427  -0.70574  -0.00009  -0.00013  -0.14767
   2        2S          0.01495  -0.01304   0.00011   0.00021   0.30764
   3        2PX         0.01077  -0.00342  -0.00003  -0.00006   0.14321
   4        2PY         0.00083  -0.00016   0.00000   0.00000   0.00281
   5        2PZ        -0.00931   0.00425  -0.00004  -0.00007  -0.05170
   6        3S         -0.00710   0.01129   0.00091   0.00197   0.25267
   7        3PX         0.00525  -0.00098  -0.00018  -0.00050   0.02808
   8        3PY        -0.00004   0.00003   0.00002   0.00005   0.00196
   9        3PZ        -0.00433  -0.00002  -0.00061  -0.00140  -0.03196
  10        4S         -0.00006  -0.00807   0.00378   0.01390  -0.04933
  11        4PX         0.00062  -0.00252  -0.00082   0.00104  -0.00769
  12        4PY        -0.00027  -0.00001   0.00004   0.00015  -0.00052
  13        4PZ        -0.00065   0.00164  -0.00091  -0.00325   0.01371
  14        5XX        -0.00186   0.00101  -0.00002  -0.00020   0.02147
  15        5YY        -0.00275   0.00236  -0.00001   0.00007  -0.01339
  16        5ZZ        -0.00219   0.00203  -0.00017  -0.00023  -0.00550
  17        5XY         0.00000   0.00000   0.00001   0.00001   0.00017
  18        5XZ        -0.00085   0.00001  -0.00018  -0.00018  -0.00320
  19        5YZ        -0.00020   0.00002   0.00000   0.00001  -0.00042
  20 2   N  1S          0.70428   0.70573  -0.00009   0.00013  -0.14767
  21        2S          0.01495   0.01304   0.00011  -0.00021   0.30764
  22        2PX        -0.01077  -0.00342   0.00003  -0.00006  -0.14321
  23        2PY         0.00083   0.00016   0.00000   0.00000   0.00281
  24        2PZ        -0.00931  -0.00425  -0.00004   0.00007  -0.05170
  25        3S         -0.00710  -0.01129   0.00092  -0.00197   0.25267
  26        3PX        -0.00525  -0.00098   0.00018  -0.00050  -0.02808
  27        3PY        -0.00004  -0.00003   0.00002  -0.00005   0.00196
  28        3PZ        -0.00433   0.00002  -0.00062   0.00140  -0.03196
  29        4S         -0.00006   0.00807   0.00382  -0.01388  -0.04933
  30        4PX        -0.00062  -0.00252   0.00082   0.00104   0.00769
  31        4PY        -0.00027   0.00001   0.00004  -0.00015  -0.00052
  32        4PZ        -0.00065  -0.00164  -0.00092   0.00325   0.01371
  33        5XX        -0.00186  -0.00101  -0.00002   0.00020   0.02147
  34        5YY        -0.00275  -0.00236  -0.00001  -0.00007  -0.01339
  35        5ZZ        -0.00219  -0.00203  -0.00017   0.00023  -0.00550
  36        5XY         0.00000   0.00000  -0.00001   0.00001  -0.00017
  37        5XZ         0.00085   0.00001   0.00018  -0.00018   0.00320
  38        5YZ        -0.00020  -0.00002   0.00000  -0.00001  -0.00042
  39 3   C  1S         -0.00006  -0.00018   0.70515  -0.70314  -0.04227
  40        2S          0.00022   0.00065   0.02012  -0.02069   0.07825
  41        2PX         0.00327  -0.00007  -0.00019   0.00041  -0.03563
  42        2PY         0.00656  -0.00003   0.00003  -0.00001   0.00072
  43        2PZ         0.00189   0.00052   0.00028  -0.00024   0.04261
  44        3S          0.00139   0.00375  -0.01043   0.01392   0.02699
  45        3PX         0.00161  -0.00102   0.00008  -0.00171  -0.00054
  46        3PY         0.00335  -0.00003   0.00004  -0.00006   0.00158
  47        3PZ         0.00127   0.00134  -0.00059   0.00075  -0.00285
  48        4S         -0.00063  -0.00130  -0.00268   0.00697   0.02574
  49        4PX         0.00072   0.00063   0.00048  -0.00185  -0.01000
  50        4PY         0.00021   0.00000   0.00003  -0.00005  -0.00021
  51        4PZ        -0.00017   0.00003  -0.00069   0.00086   0.01013
  52        5XX         0.00066   0.00007  -0.00128   0.00113   0.00385
  53        5YY        -0.00036   0.00003  -0.00131   0.00109  -0.00184
  54        5ZZ        -0.00061  -0.00036  -0.00135   0.00112   0.00779
  55        5XY        -0.00019   0.00000   0.00000   0.00000   0.00023
  56        5XZ        -0.00009   0.00004   0.00005  -0.00008  -0.00927
  57        5YZ        -0.00046   0.00002   0.00000   0.00000  -0.00054
  58 4   H  1S          0.00328   0.00042   0.00009  -0.00011   0.01498
  59        2S          0.00320   0.00032   0.00191  -0.00133   0.00423
  60 5   H  1S         -0.00501  -0.00016  -0.00001  -0.00022   0.01581
  61        2S         -0.00434  -0.00061   0.00185  -0.00246   0.00449
  62 6   H  1S          0.00181  -0.00023  -0.00001  -0.00020   0.01830
  63        2S          0.00095  -0.00075   0.00183  -0.00255   0.00596
  64 7   C  1S         -0.00006   0.00018   0.70300   0.70528  -0.04227
  65        2S          0.00022  -0.00065   0.02006   0.02075   0.07825
  66        2PX        -0.00327  -0.00007   0.00019   0.00041   0.03563
  67        2PY         0.00656   0.00003   0.00003   0.00001   0.00072
  68        2PZ         0.00189  -0.00052   0.00028   0.00024   0.04261
  69        3S          0.00139  -0.00375  -0.01039  -0.01395   0.02699
  70        3PX        -0.00161  -0.00102  -0.00007  -0.00171   0.00054
  71        3PY         0.00335   0.00003   0.00004   0.00006   0.00158
  72        3PZ         0.00127  -0.00134  -0.00058  -0.00075  -0.00285
  73        4S         -0.00063   0.00130  -0.00266  -0.00698   0.02574
  74        4PX        -0.00072   0.00063  -0.00047  -0.00186   0.01000
  75        4PY         0.00021   0.00000   0.00003   0.00005  -0.00021
  76        4PZ        -0.00017  -0.00003  -0.00069  -0.00087   0.01013
  77        5XX         0.00066  -0.00007  -0.00128  -0.00113   0.00385
  78        5YY        -0.00036  -0.00003  -0.00131  -0.00109  -0.00184
  79        5ZZ        -0.00061   0.00036  -0.00134  -0.00112   0.00779
  80        5XY         0.00019   0.00000   0.00000   0.00000  -0.00023
  81        5XZ         0.00009   0.00004  -0.00005  -0.00008   0.00927
  82        5YZ        -0.00046  -0.00002   0.00000   0.00000  -0.00054
  83 8   H  1S          0.00181   0.00023  -0.00001   0.00020   0.01830
  84        2S          0.00095   0.00075   0.00182   0.00255   0.00596
  85 9   H  1S         -0.00501   0.00016  -0.00001   0.00022   0.01581
  86        2S         -0.00434   0.00061   0.00184   0.00246   0.00449
  87 10  H  1S          0.00328  -0.00042   0.00009   0.00011   0.01498
  88        2S          0.00320  -0.00032   0.00191   0.00134   0.00423
                           6         7         8         9        10
                           O         O         O         O         O
     Eigenvalues --     0.00000   0.00000   0.00000   0.00000   0.00000
   1 1   N  1S          0.02554   0.03717  -0.04241  -0.02203  -0.01494
   2        2S         -0.05044  -0.08104   0.08761   0.04344   0.03284
   3        2PX         0.03091  -0.16059  -0.05034  -0.26997  -0.15332
   4        2PY        -0.00472   0.00443  -0.00260   0.00817   0.01346
   5        2PZ         0.12635  -0.10732  -0.26673  -0.11849   0.11429
   6        3S         -0.01741  -0.08948   0.08909   0.10219   0.08110
   7        3PX        -0.01514  -0.04386   0.02119  -0.11290  -0.09210
   8        3PY        -0.00208   0.00083   0.00324   0.00202  -0.00907
   9        3PZ         0.07085  -0.03004  -0.20189  -0.06115   0.07677
  10        4S          0.08254  -0.01205  -0.09290  -0.02766   0.02288
  11        4PX        -0.00473   0.01638   0.03178   0.02795  -0.00671
  12        4PY         0.00146  -0.00046   0.00369  -0.00153  -0.00759
  13        4PZ        -0.00965   0.00352   0.00956   0.01032   0.00209
  14        5XX         0.00191  -0.01474  -0.00682  -0.01452  -0.00946
  15        5YY         0.00561   0.00205  -0.00989   0.00021   0.00682
  16        5ZZ        -0.01420   0.01862   0.01858   0.01360   0.00149
  17        5XY         0.00051  -0.00026   0.00041  -0.00058  -0.00150
  18        5XZ        -0.01175   0.00504   0.01713   0.00807   0.01095
  19        5YZ         0.00087  -0.00087   0.00072  -0.00156  -0.00596
  20 2   N  1S         -0.02554   0.03717   0.04241  -0.02203  -0.01494
  21        2S          0.05044  -0.08104  -0.08761   0.04344   0.03284
  22        2PX         0.03091   0.16059  -0.05034   0.26997   0.15331
  23        2PY         0.00472   0.00443   0.00260   0.00817   0.01346
  24        2PZ        -0.12635  -0.10732   0.26673  -0.11849   0.11430
  25        3S          0.01741  -0.08948  -0.08909   0.10219   0.08110
  26        3PX        -0.01514   0.04386   0.02119   0.11290   0.09210
  27        3PY         0.00208   0.00083  -0.00324   0.00202  -0.00907
  28        3PZ        -0.07085  -0.03004   0.20189  -0.06114   0.07678
  29        4S         -0.08254  -0.01205   0.09290  -0.02766   0.02288
  30        4PX        -0.00473  -0.01638   0.03178  -0.02795   0.00671
  31        4PY        -0.00146  -0.00046  -0.00369  -0.00153  -0.00759
  32        4PZ         0.00965   0.00352  -0.00956   0.01032   0.00209
  33        5XX        -0.00191  -0.01474   0.00682  -0.01452  -0.00946
  34        5YY        -0.00561   0.00205   0.00989   0.00021   0.00682
  35        5ZZ         0.01420   0.01862  -0.01858   0.01360   0.00149
  36        5XY         0.00051   0.00026   0.00041   0.00058   0.00150
  37        5XZ        -0.01175  -0.00504   0.01713  -0.00807  -0.01095
  38        5YZ        -0.00087  -0.00087  -0.00072  -0.00156  -0.00596
  39 3   C  1S         -0.14010  -0.12585  -0.00361   0.01089   0.00670
  40        2S          0.26333   0.23630  -0.00205  -0.01602  -0.01315
  41        2PX         0.00621   0.00823   0.09900   0.02967  -0.12441
  42        2PY        -0.00065   0.00484   0.09663   0.02356   0.24420
  43        2PZ         0.00912  -0.01367  -0.27793   0.26585  -0.04807
  44        3S          0.27510   0.24919   0.02400  -0.04778  -0.02714
  45        3PX         0.00106  -0.00530   0.03647   0.02943  -0.06593
  46        3PY         0.00163   0.00278   0.04835   0.01586   0.11806
  47        3PZ        -0.00053  -0.00623  -0.12877   0.11090  -0.02246
  48        4S          0.04263   0.01378  -0.02580   0.01310   0.00036
  49        4PX        -0.00830   0.00191   0.00536   0.00566  -0.00751
  50        4PY         0.00037   0.00026   0.00525   0.00083   0.00580
  51        4PZ         0.01085   0.00100  -0.02461   0.01076  -0.00092
  52        5XX         0.00829   0.00444  -0.00670   0.00657  -0.01460
  53        5YY         0.00640   0.00710   0.01639  -0.01966   0.00550
  54        5ZZ         0.00396   0.00392  -0.00882   0.01133   0.00808
  55        5XY         0.00036  -0.00014  -0.00424   0.00089  -0.01034
  56        5XZ         0.00007   0.00389   0.02166  -0.01321   0.00172
  57        5YZ         0.00007  -0.00037  -0.00614  -0.00213  -0.01961
  58 4   H  1S          0.10244   0.08843   0.02072   0.04143  -0.09260
  59        2S          0.03010   0.02347  -0.01064   0.03037  -0.07938
  60 5   H  1S          0.09101   0.08775   0.04003  -0.11496  -0.10359
  61        2S          0.01372   0.01556   0.02464  -0.06695  -0.07807
  62 6   H  1S          0.09033   0.09423   0.14042  -0.09435   0.17344
  63        2S          0.01158   0.02151   0.10521  -0.05434   0.15182
  64 7   C  1S          0.14010  -0.12585   0.00361   0.01089   0.00670
  65        2S         -0.26333   0.23630   0.00205  -0.01602  -0.01315
  66        2PX         0.00621  -0.00823   0.09900  -0.02967   0.12439
  67        2PY         0.00065   0.00484  -0.09664   0.02356   0.24422
  68        2PZ        -0.00912  -0.01367   0.27793   0.26585  -0.04805
  69        3S         -0.27510   0.24919  -0.02400  -0.04778  -0.02714
  70        3PX         0.00106   0.00530   0.03647  -0.02943   0.06592
  71        3PY        -0.00163   0.00278  -0.04836   0.01586   0.11808
  72        3PZ         0.00053  -0.00623   0.12877   0.11090  -0.02245
  73        4S         -0.04263   0.01378   0.02580   0.01310   0.00037
  74        4PX        -0.00830  -0.00191   0.00536  -0.00566   0.00751
  75        4PY        -0.00037   0.00026  -0.00525   0.00083   0.00580
  76        4PZ        -0.01085   0.00100   0.02461   0.01076  -0.00091
  77        5XX        -0.00829   0.00444   0.00670   0.00657  -0.01460
  78        5YY        -0.00640   0.00710  -0.01639  -0.01966   0.00550
  79        5ZZ        -0.00396   0.00392   0.00882   0.01133   0.00808
  80        5XY         0.00036   0.00014  -0.00424  -0.00089   0.01034
  81        5XZ         0.00007  -0.00389   0.02166   0.01321  -0.00172
  82        5YZ        -0.00007  -0.00037   0.00614  -0.00213  -0.01961
  83 8   H  1S         -0.09033   0.09423  -0.14042  -0.09435   0.17344
  84        2S         -0.01158   0.02151  -0.10521  -0.05434   0.15182
  85 9   H  1S         -0.09101   0.08775  -0.04003  -0.11496  -0.10361
  86        2S         -0.01372   0.01556  -0.02464  -0.06695  -0.07808
  87 10  H  1S         -0.10244   0.08843  -0.02071   0.04143  -0.09259
  88        2S         -0.03010   0.02347   0.01064   0.03037  -0.07937
                          11        12        13        14        15
                           O         O         O         O         O
     Eigenvalues --     0.00000   0.00000   0.00000   0.00000   0.00000
   1 1   N  1S          0.01783   0.01030  -0.01145   0.00436   0.00078
   2        2S         -0.04407  -0.02157   0.02412  -0.06915  -0.00230
   3        2PX        -0.01660   0.01509   0.00971   0.25947   0.00141
   4        2PY         0.00567  -0.04986   0.00866   0.02048   0.42777
   5        2PZ        -0.25499   0.06624  -0.09174  -0.21708   0.01670
   6        3S         -0.05666  -0.02084   0.02472  -0.15023  -0.00397
   7        3PX        -0.00038  -0.00635   0.00103   0.15162   0.00097
   8        3PY         0.00690  -0.01888   0.00513  -0.00043   0.27882
   9        3PZ        -0.13056   0.05147  -0.06190  -0.13861   0.01008
  10        4S          0.00310   0.03813  -0.00274  -0.03045   0.00993
  11        4PX        -0.00144  -0.00930  -0.02168   0.00472   0.00086
  12        4PY         0.00193   0.02245  -0.00268  -0.00766   0.01249
  13        4PZ         0.00346  -0.00460  -0.02703  -0.00392  -0.00254
  14        5XX        -0.01098   0.00050  -0.01077   0.01286  -0.00024
  15        5YY        -0.00579   0.00216  -0.00141  -0.01072   0.00139
  16        5ZZ         0.01932  -0.00372   0.01123   0.00030  -0.00110
  17        5XY         0.00088   0.00436  -0.00033   0.00002   0.03536
  18        5XZ        -0.01434  -0.00463   0.00116  -0.02193   0.00135
  19        5YZ         0.00006   0.00810  -0.00161  -0.00509  -0.01487
  20 2   N  1S          0.01783  -0.01030   0.01145   0.00436   0.00078
  21        2S         -0.04407   0.02157  -0.02412  -0.06915  -0.00230
  22        2PX         0.01660   0.01510   0.00972  -0.25948  -0.00141
  23        2PY         0.00567   0.04987  -0.00866   0.02048   0.42777
  24        2PZ        -0.25499  -0.06623   0.09175  -0.21708   0.01670
  25        3S         -0.05666   0.02085  -0.02472  -0.15024  -0.00397
  26        3PX         0.00038  -0.00634   0.00104  -0.15162  -0.00097
  27        3PY         0.00690   0.01888  -0.00513  -0.00043   0.27882
  28        3PZ        -0.13056  -0.05146   0.06191  -0.13861   0.01008
  29        4S          0.00310  -0.03813   0.00274  -0.03045   0.00993
  30        4PX         0.00144  -0.00930  -0.02168  -0.00471  -0.00086
  31        4PY         0.00193  -0.02245   0.00268  -0.00766   0.01249
  32        4PZ         0.00346   0.00460   0.02703  -0.00392  -0.00254
  33        5XX        -0.01098  -0.00050   0.01077   0.01286  -0.00024
  34        5YY        -0.00579  -0.00216   0.00141  -0.01072   0.00139
  35        5ZZ         0.01932   0.00372  -0.01123   0.00030  -0.00110
  36        5XY        -0.00088   0.00436  -0.00033  -0.00002  -0.03536
  37        5XZ         0.01434  -0.00463   0.00116   0.02193  -0.00135
  38        5YZ         0.00006  -0.00810   0.00161  -0.00509  -0.01487
  39 3   C  1S          0.01475   0.00203   0.00832  -0.00139  -0.00019
  40        2S         -0.02669  -0.00016  -0.01310   0.00219   0.00044
  41        2PX        -0.25667   0.00619   0.30266   0.08950  -0.00034
  42        2PY        -0.05694   0.30494  -0.03999   0.17330  -0.02568
  43        2PZ         0.02401   0.10274   0.10359   0.04760  -0.00269
  44        3S         -0.05278  -0.01393  -0.01551   0.01192   0.00165
  45        3PX        -0.12844   0.01482   0.18253   0.05142   0.00153
  46        3PY        -0.02984   0.16788  -0.01798   0.08886  -0.02570
  47        3PZ        -0.00021   0.05600   0.07147   0.03257  -0.00391
  48        4S         -0.01409   0.01000   0.00984  -0.00484  -0.00335
  49        4PX        -0.00301   0.00102   0.01600   0.01134   0.00103
  50        4PY        -0.00228   0.01393  -0.00027   0.00563  -0.00382
  51        4PZ        -0.00701   0.01044   0.01281  -0.00010  -0.00103
  52        5XX        -0.01297   0.00737   0.02453   0.01902  -0.00047
  53        5YY         0.00183  -0.00884  -0.01457  -0.00837  -0.00009
  54        5ZZ         0.00865   0.00167  -0.00950  -0.01088   0.00059
  55        5XY         0.00034  -0.00921   0.00420  -0.00481  -0.00649
  56        5XZ        -0.01595  -0.00366   0.01040  -0.00315  -0.00036
  57        5YZ         0.00277  -0.02120   0.00469  -0.01221   0.01628
  58 4   H  1S         -0.16133   0.02931   0.20072   0.08839  -0.00263
  59        2S         -0.09084   0.02371   0.13491   0.08759  -0.00621
  60 5   H  1S          0.03626  -0.19966  -0.05118  -0.13095   0.03987
  61        2S          0.03083  -0.13617  -0.02454  -0.10460   0.05208
  62 6   H  1S         -0.01257   0.11632  -0.11053   0.04927  -0.03625
  63        2S         -0.00592   0.08962  -0.07658   0.03452  -0.05322
  64 7   C  1S          0.01475  -0.00203  -0.00832  -0.00139  -0.00019
  65        2S         -0.02669   0.00016   0.01310   0.00219   0.00044
  66        2PX         0.25667   0.00619   0.30267  -0.08950   0.00034
  67        2PY        -0.05694  -0.30492   0.04000   0.17331  -0.02568
  68        2PZ         0.02401  -0.10274  -0.10360   0.04761  -0.00269
  69        3S         -0.05278   0.01393   0.01551   0.01192   0.00165
  70        3PX         0.12844   0.01483   0.18253  -0.05142  -0.00153
  71        3PY        -0.02984  -0.16787   0.01799   0.08886  -0.02570
  72        3PZ        -0.00021  -0.05601  -0.07147   0.03257  -0.00391
  73        4S         -0.01409  -0.01000  -0.00984  -0.00484  -0.00335
  74        4PX         0.00301   0.00102   0.01601  -0.01134  -0.00103
  75        4PY        -0.00228  -0.01393   0.00027   0.00562  -0.00382
  76        4PZ        -0.00701  -0.01045  -0.01281  -0.00010  -0.00103
  77        5XX        -0.01297  -0.00737  -0.02453   0.01902  -0.00047
  78        5YY         0.00183   0.00883   0.01457  -0.00836  -0.00009
  79        5ZZ         0.00865  -0.00166   0.00950  -0.01088   0.00059
  80        5XY        -0.00034  -0.00921   0.00420   0.00481   0.00649
  81        5XZ         0.01595  -0.00366   0.01040   0.00315   0.00036
  82        5YZ         0.00277   0.02120  -0.00469  -0.01221   0.01628
  83 8   H  1S         -0.01257  -0.11630   0.11054   0.04927  -0.03625
  84        2S         -0.00592  -0.08961   0.07659   0.03452  -0.05322
  85 9   H  1S          0.03626   0.19965   0.05118  -0.13096   0.03987
  86        2S          0.03083   0.13616   0.02454  -0.10460   0.05208
  87 10  H  1S         -0.16133  -0.02931  -0.20072   0.08839  -0.00263
  88        2S         -0.09084  -0.02372  -0.13491   0.08759  -0.00621
                          16        17        18        19        20
                           O         V         V         V         V
     Eigenvalues --     0.00000   0.00000   0.00000   0.00000   0.00000
   1 1   N  1S         -0.12649   0.00035  -0.00039  -0.00456   0.00033
   2        2S          0.30240  -0.00273  -0.00584   0.02030  -0.01300
   3        2PX        -0.16154   0.00175  -0.00560  -0.00770  -0.00595
   4        2PY        -0.00768   0.59265  -0.00433  -0.01319  -0.00055
   5        2PZ         0.21832   0.02344  -0.04204   0.01200   0.04575
   6        3S          0.49682   0.00438   0.01141  -0.00384   0.08581
   7        3PX        -0.09833   0.00387   0.01016  -0.00202   0.00184
   8        3PY        -0.00360   0.35820   0.00300   0.01205  -0.00947
   9        3PZ         0.14946   0.01354  -0.00581   0.00667   0.01751
  10        4S         -0.17349   0.05029  -1.02940   0.86947  -3.48409
  11        4PX        -0.08007   0.01115   0.27419  -0.31357  -1.48272
  12        4PY         0.00190  -0.05382  -0.11736  -0.25907   0.21610
  13        4PZ         0.04976  -0.00621   0.22365  -0.13917  -0.40738
  14        5XX        -0.01247  -0.00008  -0.00338   0.00378   0.00393
  15        5YY         0.00383   0.00056   0.00237  -0.00080  -0.00412
  16        5ZZ        -0.00755  -0.00047  -0.00510   0.00187  -0.00393
  17        5XY         0.00010  -0.00114  -0.00008  -0.00080  -0.00037
  18        5XZ        -0.00256  -0.00012  -0.00811   0.00421   0.00205
  19        5YZ         0.00064  -0.00679   0.00174   0.00357  -0.00056
  20 2   N  1S          0.12649  -0.00035  -0.00039  -0.00456  -0.00033
  21        2S         -0.30240   0.00273  -0.00584   0.02030   0.01300
  22        2PX        -0.16154   0.00175   0.00560   0.00770  -0.00595
  23        2PY         0.00768  -0.59265  -0.00433  -0.01319   0.00055
  24        2PZ        -0.21832  -0.02344  -0.04204   0.01200  -0.04575
  25        3S         -0.49682  -0.00438   0.01141  -0.00384  -0.08581
  26        3PX        -0.09833   0.00387  -0.01016   0.00202   0.00184
  27        3PY         0.00360  -0.35820   0.00300   0.01205   0.00947
  28        3PZ        -0.14946  -0.01354  -0.00581   0.00667  -0.01751
  29        4S          0.17349  -0.05029  -1.02941   0.86941   3.48409
  30        4PX        -0.08007   0.01115  -0.27418   0.31361  -1.48272
  31        4PY        -0.00190   0.05382  -0.11736  -0.25907  -0.21610
  32        4PZ        -0.04976   0.00621   0.22365  -0.13918   0.40738
  33        5XX         0.01247   0.00008  -0.00338   0.00378  -0.00393
  34        5YY        -0.00383  -0.00056   0.00237  -0.00080   0.00412
  35        5ZZ         0.00755   0.00047  -0.00510   0.00187   0.00393
  36        5XY         0.00010  -0.00114   0.00008   0.00080  -0.00037
  37        5XZ        -0.00256  -0.00012   0.00811  -0.00421   0.00205
  38        5YZ        -0.00064   0.00679   0.00174   0.00357   0.00056
  39 3   C  1S         -0.01362   0.00016   0.03529  -0.01243   0.02098
  40        2S          0.03283  -0.00028  -0.09167   0.03695  -0.06444
  41        2PX         0.00532   0.00019  -0.00936   0.02635  -0.06623
  42        2PY        -0.00174   0.04605  -0.03422  -0.08749  -0.01566
  43        2PZ         0.02311   0.00239   0.03321  -0.00038   0.01086
  44        3S          0.12496  -0.00044  -0.03490   0.02294   0.02375
  45        3PX        -0.02434   0.00105  -0.01534   0.06002  -0.04101
  46        3PY        -0.00012   0.06091  -0.04110  -0.10452  -0.00784
  47        3PZ         0.06204   0.00356   0.12879  -0.04577   0.12326
  48        4S         -0.04795   0.00637   1.65057  -1.00083  -0.36212
  49        4PX         0.02240  -0.00190   0.05713  -0.12867   1.45014
  50        4PY         0.00003  -0.01608   0.33343   0.82668   0.36270
  51        4PZ         0.00820   0.00048   0.10463  -0.41499  -0.00718
  52        5XX         0.01021   0.00072  -0.00324   0.00072  -0.00374
  53        5YY         0.00203  -0.00012  -0.00610   0.00078  -0.00477
  54        5ZZ        -0.01204  -0.00043   0.00100   0.00354   0.00084
  55        5XY         0.00035   0.00319   0.00259   0.00579   0.00167
  56        5XZ         0.00163   0.00038  -0.00714   0.00089  -0.00978
  57        5YZ         0.00102  -0.01527   0.00200   0.00503   0.00055
  58 4   H  1S          0.03307   0.00294   0.00351  -0.00300  -0.00818
  59        2S          0.03518   0.00242  -0.20266   0.05132  -0.22733
  60 5   H  1S         -0.00337  -0.04342   0.00790   0.00753  -0.00085
  61        2S         -0.02263  -0.03329  -0.08754   0.16468   0.07992
  62 6   H  1S         -0.00846   0.03925  -0.00048  -0.00979  -0.00500
  63        2S         -0.03213   0.03410  -0.24349  -0.17092  -0.02383
  64 7   C  1S          0.01362  -0.00016   0.03529  -0.01243  -0.02098
  65        2S         -0.03283   0.00028  -0.09167   0.03695   0.06444
  66        2PX         0.00532   0.00019   0.00936  -0.02635  -0.06623
  67        2PY         0.00174  -0.04605  -0.03422  -0.08749   0.01566
  68        2PZ        -0.02311  -0.00239   0.03321  -0.00038  -0.01086
  69        3S         -0.12496   0.00044  -0.03490   0.02294  -0.02375
  70        3PX        -0.02433   0.00105   0.01534  -0.06002  -0.04101
  71        3PY         0.00012  -0.06091  -0.04110  -0.10452   0.00784
  72        3PZ        -0.06204  -0.00356   0.12879  -0.04577  -0.12326
  73        4S          0.04795  -0.00637   1.65059  -1.00078   0.36212
  74        4PX         0.02240  -0.00190  -0.05712   0.12868   1.45014
  75        4PY        -0.00003   0.01608   0.33343   0.82668  -0.36270
  76        4PZ        -0.00820  -0.00048   0.10463  -0.41497   0.00718
  77        5XX        -0.01021  -0.00072  -0.00324   0.00072   0.00374
  78        5YY        -0.00203   0.00012  -0.00610   0.00078   0.00477
  79        5ZZ         0.01204   0.00043   0.00100   0.00354  -0.00084
  80        5XY         0.00035   0.00319  -0.00259  -0.00579   0.00167
  81        5XZ         0.00163   0.00038   0.00714  -0.00090  -0.00978
  82        5YZ        -0.00102   0.01527   0.00200   0.00503  -0.00055
  83 8   H  1S          0.00846  -0.03925  -0.00048  -0.00979   0.00500
  84        2S          0.03213  -0.03410  -0.24349  -0.17093   0.02383
  85 9   H  1S          0.00337   0.04342   0.00790   0.00753   0.00085
  86        2S          0.02263   0.03329  -0.08754   0.16468  -0.07992
  87 10  H  1S         -0.03307  -0.00293   0.00351  -0.00300   0.00818
  88        2S         -0.03518  -0.00242  -0.20266   0.05132   0.22733
                          21        22        23        24        25
                           V         V         V         V         V
     Eigenvalues --     0.00000   0.00000   0.00000   0.00000   0.00000
   1 1   N  1S          0.01130   0.00962   0.01235   0.00248   0.00212
   2        2S         -0.06094  -0.03826  -0.04406  -0.00985   0.00407
   3        2PX         0.03940   0.02261   0.01831   0.00635  -0.02210
   4        2PY        -0.01031  -0.00515  -0.00391   0.00669   0.00574
   5        2PZ         0.01002  -0.05217   0.01053  -0.00268  -0.04042
   6        3S          0.07204   0.04266  -0.10404  -0.00739  -0.01256
   7        3PX         0.01057   0.06705  -0.14485  -0.01687  -0.14224
   8        3PY        -0.01845  -0.01797  -0.00985  -0.03582   0.01903
   9        3PZ         0.02400  -0.19610   0.05568  -0.02288  -0.19050
  10        4S         -2.13642   0.23872   0.27024   1.53600  -1.41780
  11        4PX         0.55779  -0.76400   1.97734   0.72589   2.10567
  12        4PY        -0.05287   0.04922  -0.12358   0.77901  -0.13867
  13        4PZ         0.20368   0.94826   0.82232   0.17171   0.33681
  14        5XX        -0.00958  -0.00095  -0.01417  -0.00283  -0.00716
  15        5YY        -0.00392  -0.01004  -0.00102  -0.00056   0.00909
  16        5ZZ        -0.00647   0.01405  -0.00316   0.00099   0.01429
  17        5XY        -0.00065  -0.00056  -0.00023  -0.00091  -0.00098
  18        5XZ        -0.00235  -0.00592  -0.00135  -0.00115   0.01066
  19        5YZ         0.00175   0.00021   0.00085  -0.00256  -0.00211
  20 2   N  1S          0.01130   0.00963  -0.01235  -0.00248   0.00212
  21        2S         -0.06094  -0.03826   0.04406   0.00985   0.00407
  22        2PX        -0.03940  -0.02261   0.01831   0.00635   0.02210
  23        2PY        -0.01031  -0.00515   0.00391  -0.00669   0.00573
  24        2PZ         0.01002  -0.05217  -0.01053   0.00268  -0.04042
  25        3S          0.07204   0.04267   0.10404   0.00739  -0.01257
  26        3PX        -0.01057  -0.06706  -0.14485  -0.01688   0.14224
  27        3PY        -0.01845  -0.01797   0.00985   0.03582   0.01903
  28        3PZ         0.02400  -0.19610  -0.05568   0.02288  -0.19050
  29        4S         -2.13644   0.23868  -0.27024  -1.53602  -1.41781
  30        4PX        -0.55778   0.76401   1.97734   0.72590  -2.10566
  31        4PY        -0.05287   0.04922   0.12359  -0.77901  -0.13868
  32        4PZ         0.20368   0.94826  -0.82232  -0.17171   0.33682
  33        5XX        -0.00958  -0.00095   0.01417   0.00283  -0.00716
  34        5YY        -0.00392  -0.01004   0.00102   0.00056   0.00909
  35        5ZZ        -0.00647   0.01405   0.00316  -0.00099   0.01429
  36        5XY         0.00065   0.00056  -0.00023  -0.00091   0.00098
  37        5XZ         0.00235   0.00592  -0.00135  -0.00115  -0.01066
  38        5YZ         0.00175   0.00021  -0.00085   0.00256  -0.00211
  39 3   C  1S         -0.00894  -0.02495   0.00802  -0.00115  -0.04011
  40        2S         -0.00432   0.00501   0.00995   0.00630   0.04002
  41        2PX        -0.02445  -0.02215   0.03778   0.03254   0.07487
  42        2PY        -0.02499  -0.00560   0.01591  -0.06700   0.03610
  43        2PZ        -0.02125  -0.03558   0.01881   0.00839  -0.01610
  44        3S          0.13566   0.40676  -0.19184   0.00730   0.63915
  45        3PX        -0.06047  -0.32626   0.06001   0.00272   0.55338
  46        3PY        -0.02547  -0.02722   0.01963  -0.05165   0.16186
  47        3PZ         0.01958  -0.16464  -0.05713  -0.00813  -0.02357
  48        4S          1.59461  -0.25032  -4.50800   0.55318   1.26286
  49        4PX        -0.33791  -0.23682   1.18770  -0.71026   0.33751
  50        4PY         0.22087  -0.00893  -0.29948   1.47918   0.08305
  51        4PZ         1.36104  -0.45373  -2.27349  -0.41283   0.41845
  52        5XX        -0.00095   0.00218   0.00399   0.00068  -0.00999
  53        5YY         0.00715  -0.01345  -0.00552  -0.00008   0.00164
  54        5ZZ        -0.01281  -0.00310   0.00912   0.00242  -0.01047
  55        5XY         0.00139   0.00018  -0.00181   0.00901   0.00182
  56        5XZ         0.00470   0.00235  -0.00543  -0.00143  -0.01193
  57        5YZ         0.00226   0.00017  -0.00187   0.00465   0.00035
  58 4   H  1S          0.00326   0.01802   0.00414   0.00192  -0.05041
  59        2S          0.01009   0.29988  -0.00676   0.01700  -0.59163
  60 5   H  1S          0.00949  -0.03465  -0.01481   0.01284   0.00894
  61        2S          0.14421  -0.04098  -0.13550   0.10467   0.03697
  62 6   H  1S          0.00258  -0.02945  -0.00844  -0.01419  -0.00430
  63        2S         -0.00510  -0.04539  -0.01909  -0.29721  -0.25515
  64 7   C  1S         -0.00894  -0.02495  -0.00802   0.00115  -0.04011
  65        2S         -0.00432   0.00501  -0.00995  -0.00631   0.04002
  66        2PX         0.02445   0.02215   0.03778   0.03254  -0.07487
  67        2PY        -0.02500  -0.00559  -0.01591   0.06700   0.03609
  68        2PZ        -0.02125  -0.03558  -0.01881  -0.00839  -0.01610
  69        3S          0.13566   0.40676   0.19184  -0.00730   0.63915
  70        3PX         0.06047   0.32626   0.06001   0.00271  -0.55339
  71        3PY        -0.02547  -0.02721  -0.01963   0.05165   0.16185
  72        3PZ         0.01958  -0.16465   0.05713   0.00813  -0.02356
  73        4S          1.59461  -0.25031   4.50801  -0.55316   1.26285
  74        4PX         0.33792   0.23682   1.18770  -0.71023  -0.33751
  75        4PY         0.22087  -0.00893   0.29948  -1.47918   0.08305
  76        4PZ         1.36104  -0.45373   2.27349   0.41283   0.41845
  77        5XX        -0.00095   0.00218  -0.00399  -0.00068  -0.00999
  78        5YY         0.00715  -0.01345   0.00552   0.00008   0.00164
  79        5ZZ        -0.01281  -0.00310  -0.00912  -0.00242  -0.01047
  80        5XY        -0.00139  -0.00018  -0.00181   0.00901  -0.00182
  81        5XZ        -0.00470  -0.00235  -0.00543  -0.00143   0.01193
  82        5YZ         0.00226   0.00017   0.00187  -0.00465   0.00035
  83 8   H  1S          0.00258  -0.02945   0.00844   0.01419  -0.00430
  84        2S         -0.00510  -0.04540   0.01909   0.29721  -0.25513
  85 9   H  1S          0.00949  -0.03465   0.01481  -0.01284   0.00894
  86        2S          0.14421  -0.04097   0.13550  -0.10467   0.03695
  87 10  H  1S          0.00326   0.01802  -0.00414  -0.00192  -0.05041
  88        2S          0.01009   0.29988   0.00676  -0.01700  -0.59164
                          26        27        28        29        30
                           V         V         V         V         V
     Eigenvalues --     0.00000   0.00000   0.00000   0.00000   0.00000
   1 1   N  1S          0.01059  -0.00927  -0.00403   0.06551   0.00198
   2        2S         -0.02735   0.01082   0.03119  -0.04485   0.00840
   3        2PX         0.00061  -0.00652  -0.03049   0.05442  -0.00613
   4        2PY         0.00063   0.01136   0.00005   0.00192  -0.10617
   5        2PZ        -0.04786  -0.03323   0.01738   0.07726  -0.00063
   6        3S         -0.10338   0.13003  -0.05270  -1.16058  -0.06209
   7        3PX        -0.00983  -0.01316  -0.06456   0.08656  -0.02656
   8        3PY        -0.01774   0.06687   0.01217   0.02407  -0.35436
   9        3PZ         0.09266  -0.08592   0.00370   0.09710  -0.01725
  10        4S         -8.77965  -0.37588   1.26210   2.66193   0.25222
  11        4PX        -1.09496   0.24924   0.33492   0.66252   0.18499
  12        4PY         0.14479   0.40180  -0.05586   0.03309   0.99523
  13        4PZ         1.42335   0.08436  -0.30958  -0.41941  -0.09005
  14        5XX        -0.00122  -0.00037   0.00217   0.01152   0.00152
  15        5YY         0.00156  -0.00349   0.00190   0.03736   0.00399
  16        5ZZ        -0.00881  -0.00341   0.00978   0.03691   0.00417
  17        5XY        -0.00053   0.01109   0.00032   0.00191  -0.01265
  18        5XZ         0.00040   0.00046   0.00155   0.00383   0.00121
  19        5YZ        -0.00027   0.00412   0.00007   0.00086   0.01028
  20 2   N  1S         -0.01059  -0.00927  -0.00403   0.06551   0.00198
  21        2S          0.02735   0.01082   0.03119  -0.04485   0.00840
  22        2PX         0.00061   0.00652   0.03049  -0.05442   0.00613
  23        2PY        -0.00063   0.01136   0.00005   0.00192  -0.10617
  24        2PZ         0.04786  -0.03323   0.01738   0.07726  -0.00063
  25        3S          0.10338   0.13004  -0.05270  -1.16058  -0.06209
  26        3PX        -0.00983   0.01314   0.06456  -0.08656   0.02657
  27        3PY         0.01774   0.06687   0.01217   0.02407  -0.35436
  28        3PZ        -0.09266  -0.08592   0.00370   0.09710  -0.01725
  29        4S          8.77965  -0.37614   1.26206   2.66181   0.25250
  30        4PX        -1.09497  -0.24911  -0.33491  -0.66246  -0.18510
  31        4PY        -0.14479   0.40180  -0.05588   0.03305   0.99523
  32        4PZ        -1.42335   0.08426  -0.30958  -0.41943  -0.09007
  33        5XX         0.00122  -0.00036   0.00217   0.01152   0.00151
  34        5YY        -0.00156  -0.00349   0.00190   0.03736   0.00399
  35        5ZZ         0.00881  -0.00341   0.00978   0.03691   0.00417
  36        5XY        -0.00053  -0.01109  -0.00032  -0.00191   0.01265
  37        5XZ         0.00040  -0.00046  -0.00155  -0.00383  -0.00121
  38        5YZ         0.00027   0.00412   0.00007   0.00086   0.01028
  39 3   C  1S         -0.01416   0.00070  -0.00803   0.02684   0.00045
  40        2S          0.07290   0.00006   0.02378   0.01188   0.00526
  41        2PX        -0.03658   0.05396  -0.07610  -0.08553  -0.00050
  42        2PY        -0.01424  -0.20507  -0.01535  -0.04310   0.04060
  43        2PZ        -0.07019   0.00082  -0.06916   0.09269  -0.00228
  44        3S         -0.22935  -0.01075  -0.01924  -0.78055  -0.02878
  45        3PX         0.11248   0.29231  -0.13334  -0.35017   0.04864
  46        3PY         0.01196  -1.03723  -0.01423  -0.19583   0.15333
  47        3PZ        -0.26119   0.04901  -0.11953   0.30532  -0.03734
  48        4S         -9.38408   0.25422  -0.96448  -1.90171  -0.13163
  49        4PX         4.13128   0.08820   1.38940   0.62314   0.11499
  50        4PY         0.29123  -0.53280   0.15263  -0.02336  -0.51697
  51        4PZ        -0.54312   0.16245  -0.27747  -0.81425  -0.09031
  52        5XX         0.00614  -0.00439  -0.00312   0.02320  -0.00053
  53        5YY         0.00498   0.00018   0.00377   0.00761   0.00141
  54        5ZZ        -0.00175   0.00190   0.00276  -0.01885  -0.00009
  55        5XY         0.00068  -0.01404  -0.00049  -0.00105   0.00211
  56        5XZ         0.00802  -0.00473  -0.00550   0.01513  -0.00054
  57        5YZ         0.00040  -0.00739  -0.00030   0.00079   0.00401
  58 4   H  1S          0.01370  -0.02215  -0.01529   0.07473  -0.00387
  59        2S          0.06944  -0.28951  -0.11352   0.83505  -0.03602
  60 5   H  1S         -0.01069  -0.03720  -0.00782  -0.01549   0.00627
  61        2S          0.32994  -1.01060   0.17687   0.00768   0.19026
  62 6   H  1S         -0.01099   0.05547  -0.00715  -0.00835  -0.00546
  63        2S          0.25932   1.32985   0.14727   0.39225  -0.28021
  64 7   C  1S          0.01416   0.00070  -0.00803   0.02683   0.00045
  65        2S         -0.07290   0.00006   0.02378   0.01188   0.00526
  66        2PX        -0.03658  -0.05396   0.07610   0.08554   0.00050
  67        2PY         0.01424  -0.20507  -0.01535  -0.04310   0.04060
  68        2PZ         0.07019   0.00082  -0.06916   0.09268  -0.00228
  69        3S          0.22935  -0.01073  -0.01924  -0.78054  -0.02878
  70        3PX         0.11248  -0.29228   0.13334   0.35017  -0.04864
  71        3PY        -0.01196  -1.03724  -0.01422  -0.19583   0.15333
  72        3PZ         0.26119   0.04897  -0.11953   0.30532  -0.03733
  73        4S          9.38409   0.25428  -0.96451  -1.90168  -0.13167
  74        4PX         4.13128  -0.08818  -1.38942  -0.62313  -0.11499
  75        4PY        -0.29123  -0.53280   0.15259  -0.02338  -0.51697
  76        4PZ         0.54311   0.16245  -0.27747  -0.81424  -0.09033
  77        5XX        -0.00614  -0.00439  -0.00312   0.02320  -0.00053
  78        5YY        -0.00498   0.00018   0.00377   0.00761   0.00141
  79        5ZZ         0.00175   0.00190   0.00276  -0.01885  -0.00009
  80        5XY         0.00068   0.01404   0.00049   0.00105  -0.00211
  81        5XZ         0.00802   0.00473   0.00550  -0.01513   0.00053
  82        5YZ        -0.00040  -0.00739  -0.00030   0.00079   0.00401
  83 8   H  1S          0.01099   0.05547  -0.00715  -0.00835  -0.00546
  84        2S         -0.25932   1.32984   0.14727   0.39225  -0.28020
  85 9   H  1S          0.01069  -0.03720  -0.00782  -0.01550   0.00627
  86        2S         -0.32995  -1.01062   0.17687   0.00767   0.19026
  87 10  H  1S         -0.01370  -0.02215  -0.01529   0.07473  -0.00387
  88        2S         -0.06944  -0.28947  -0.11352   0.83506  -0.03603
                          31        32        33        34        35
                           V         V         V         V         V
     Eigenvalues --     0.00000   0.00000   0.00000   0.00000   0.00000
   1 1   N  1S          0.00012   0.07646   0.00064   0.02412  -0.02090
   2        2S         -0.01196  -0.08055   0.00458   0.01217   0.04533
   3        2PX        -0.02818  -0.00394   0.00285   0.01716   0.01102
   4        2PY         0.04734  -0.00692  -0.06800  -0.00085   0.00165
   5        2PZ        -0.00581   0.08139  -0.00195  -0.10922  -0.03078
   6        3S          0.07381  -1.19606  -0.02772  -0.61845   0.10326
   7        3PX        -0.02781   0.35827   0.01278   0.12640  -0.30597
   8        3PY         0.13272  -0.01161  -0.39184   0.00203   0.01341
   9        3PZ         0.00847   0.09311  -0.04399  -0.34213  -0.26596
  10        4S         -4.02758  21.91526   2.01006   4.77298  22.15785
  11        4PX        -1.21232   4.92625   0.44016  -1.44639  10.34992
  12        4PY         1.28340  -0.05355   3.11614  -0.02305  -0.15966
  13        4PZ        -0.05246  -0.91231  -0.00757  -0.83906   3.46256
  14        5XX         0.00300   0.05654   0.00207   0.01773  -0.03178
  15        5YY        -0.00501   0.02241   0.00113   0.03332   0.00185
  16        5ZZ        -0.00623   0.01239   0.00310   0.01084   0.01569
  17        5XY         0.00258   0.00055  -0.01115  -0.00041   0.00000
  18        5XZ         0.00330  -0.00747  -0.00085  -0.01422   0.00036
  19        5YZ         0.00601   0.00007   0.00493  -0.00048  -0.00095
  20 2   N  1S         -0.00012  -0.07646  -0.00064   0.02412   0.02090
  21        2S          0.01196   0.08055  -0.00458   0.01217  -0.04533
  22        2PX        -0.02817  -0.00394   0.00285  -0.01716   0.01103
  23        2PY        -0.04734   0.00692   0.06799  -0.00085  -0.00165
  24        2PZ         0.00581  -0.08139   0.00195  -0.10922   0.03078
  25        3S         -0.07377   1.19607   0.02773  -0.61846  -0.10325
  26        3PX        -0.02779   0.35827   0.01277  -0.12640  -0.30597
  27        3PY        -0.13271   0.01161   0.39184   0.00202  -0.01341
  28        3PZ        -0.00847  -0.09311   0.04399  -0.34213   0.26596
  29        4S          4.02753 -21.91526  -2.01008   4.77288 -22.15788
  30        4PX        -1.21229   4.92624   0.44017   1.44644  10.34991
  31        4PY        -1.28339   0.05355  -3.11614  -0.02305   0.15965
  32        4PZ         0.05247   0.91232   0.00757  -0.83908  -3.46256
  33        5XX        -0.00300  -0.05654  -0.00207   0.01773   0.03178
  34        5YY         0.00501  -0.02241  -0.00113   0.03332  -0.00185
  35        5ZZ         0.00623  -0.01239  -0.00310   0.01084  -0.01569
  36        5XY         0.00258   0.00055  -0.01115   0.00041   0.00000
  37        5XZ         0.00330  -0.00747  -0.00085   0.01422   0.00036
  38        5YZ        -0.00601  -0.00007  -0.00493  -0.00048   0.00095
  39 3   C  1S          0.00336   0.01687  -0.00068   0.03464   0.04546
  40        2S         -0.00143  -0.04065  -0.00498  -0.00858  -0.02871
  41        2PX        -0.06596  -0.06772   0.00652   0.10332  -0.10006
  42        2PY         0.23861  -0.01263  -0.02798   0.02332  -0.00752
  43        2PZ        -0.02273  -0.12452   0.00421  -0.03877   0.03904
  44        3S         -0.11173   0.01236   0.05368  -0.74930  -0.89668
  45        3PX        -0.31459  -0.39228   0.01350   0.83602  -0.38119
  46        3PY         1.24177  -0.06300  -0.08909   0.15866  -0.00786
  47        3PZ        -0.12858  -0.67943   0.05118  -0.08205   0.13156
  48        4S          0.22051   6.45734   0.56622  -3.06722  -5.23776
  49        4PX        -0.19210  -2.89572  -0.22062   0.74057   0.47629
  50        4PY         0.69703  -0.10085   1.00321   0.11647   0.06287
  51        4PZ        -0.07741   0.93280   0.16300  -1.11910  -1.63291
  52        5XX         0.00326   0.00903  -0.00013  -0.01648  -0.00781
  53        5YY         0.00108  -0.02411  -0.00052   0.02164   0.01524
  54        5ZZ        -0.00367   0.00452  -0.00043   0.00561   0.01193
  55        5XY         0.00826   0.00079  -0.00493  -0.00047  -0.00135
  56        5XZ         0.00003  -0.01513  -0.00030  -0.00735   0.01067
  57        5YZ         0.01199  -0.00077  -0.00990   0.00047  -0.00044
  58 4   H  1S          0.01968   0.04721  -0.00174  -0.07086   0.00500
  59        2S          0.47383   0.86365  -0.02807  -1.10256  -0.01648
  60 5   H  1S          0.06871  -0.04817  -0.02191   0.04563   0.03676
  61        2S          1.23128  -0.49922  -0.21438   0.47729   0.12415
  62 6   H  1S         -0.07412  -0.03970   0.02468   0.03002   0.03666
  63        2S         -1.58163  -0.42435   0.26448   0.24441   0.14801
  64 7   C  1S         -0.00336  -0.01687   0.00068   0.03464  -0.04546
  65        2S          0.00143   0.04065   0.00498  -0.00858   0.02871
  66        2PX        -0.06595  -0.06772   0.00652  -0.10332  -0.10006
  67        2PY        -0.23861   0.01263   0.02798   0.02331   0.00753
  68        2PZ         0.02272   0.12452  -0.00421  -0.03877  -0.03904
  69        3S          0.11173  -0.01237  -0.05367  -0.74930   0.89669
  70        3PX        -0.31454  -0.39228   0.01349  -0.83602  -0.38119
  71        3PY        -1.24178   0.06298   0.08909   0.15862   0.00788
  72        3PZ         0.12853   0.67942  -0.05117  -0.08204  -0.13157
  73        4S         -0.22047  -6.45735  -0.56621  -3.06720   5.23778
  74        4PX        -0.19205  -2.89573  -0.22061  -0.74058   0.47630
  75        4PY        -0.69704   0.10084  -1.00321   0.11645  -0.06285
  76        4PZ         0.07741  -0.93280  -0.16300  -1.11909   1.63292
  77        5XX        -0.00326  -0.00903   0.00013  -0.01648   0.00781
  78        5YY        -0.00108   0.02411   0.00052   0.02164  -0.01524
  79        5ZZ         0.00367  -0.00452   0.00043   0.00561  -0.01193
  80        5XY         0.00826   0.00079  -0.00493   0.00047  -0.00135
  81        5XZ         0.00003  -0.01513  -0.00030   0.00735   0.01067
  82        5YZ        -0.01199   0.00077   0.00990   0.00047   0.00044
  83 8   H  1S          0.07412   0.03970  -0.02468   0.03002  -0.03666
  84        2S          1.58160   0.42437  -0.26448   0.24444  -0.14805
  85 9   H  1S         -0.06871   0.04817   0.02191   0.04563  -0.03676
  86        2S         -1.23133   0.49921   0.21437   0.47727  -0.12413
  87 10  H  1S         -0.01968  -0.04721   0.00174  -0.07086  -0.00500
  88        2S         -0.47378  -0.86364   0.02806  -1.10257   0.01648
                          36        37        38        39        40
                           V         V         V         V         V
     Eigenvalues --     0.00000   0.00000   0.00000   0.00000   0.00000
   1 1   N  1S         -0.02311  -0.01416   0.04704   0.04490   0.01968
   2        2S          0.02516   0.07879  -0.02883  -0.02395  -0.00722
   3        2PX        -0.13511  -0.01012   0.09586  -0.00623  -0.00611
   4        2PY         0.01125  -0.00247  -0.00337  -0.00782  -0.00455
   5        2PZ        -0.10507   0.03012   0.12138   0.28683   0.02833
   6        3S          0.45935  -0.30508  -0.94335  -1.28653  -0.40593
   7        3PX        -0.37436  -0.23022   0.30706  -0.23687   0.10744
   8        3PY         0.03841  -0.00691   0.00046  -0.03799  -0.01040
   9        3PZ        -0.32852   0.15610   0.41348   1.22377   0.25042
  10        4S          0.85728  22.09202   0.94947  -8.02258  -9.14597
  11        4PX         0.10858   8.62903  -0.74381   0.38509  -4.32060
  12        4PY         0.01278   0.06874   0.03726   0.00929   0.03181
  13        4PZ        -0.55763  -2.03278  -0.53095   2.12357  -2.54704
  14        5XX        -0.01534  -0.01380   0.01456  -0.00356   0.01875
  15        5YY         0.01179   0.01608   0.01848   0.01167   0.00878
  16        5ZZ         0.00266   0.00336   0.01223  -0.00738  -0.00226
  17        5XY         0.00206  -0.00024   0.00130   0.00005   0.00019
  18        5XZ        -0.01683   0.00542   0.00830  -0.00379  -0.00037
  19        5YZ         0.00145   0.00005   0.00036   0.00165  -0.00044
  20 2   N  1S         -0.02311   0.01416   0.04704  -0.04490  -0.01968
  21        2S          0.02516  -0.07879  -0.02883   0.02395   0.00722
  22        2PX         0.13511  -0.01012  -0.09586  -0.00623  -0.00611
  23        2PY         0.01126   0.00247  -0.00337   0.00782   0.00455
  24        2PZ        -0.10507  -0.03012   0.12138  -0.28683  -0.02833
  25        3S          0.45935   0.30508  -0.94334   1.28652   0.40593
  26        3PX         0.37436  -0.23022  -0.30706  -0.23687   0.10744
  27        3PY         0.03842   0.00690   0.00046   0.03799   0.01040
  28        3PZ        -0.32853  -0.15610   0.41348  -1.22377  -0.25042
  29        4S          0.85738 -22.09202   0.94898   8.02257   9.14598
  30        4PX        -0.10860   8.62903   0.74394   0.38508  -4.32060
  31        4PY         0.01281  -0.06872   0.03727  -0.00929  -0.03181
  32        4PZ        -0.55763   2.03278  -0.53093  -2.12357   2.54704
  33        5XX        -0.01534   0.01380   0.01456   0.00356  -0.01875
  34        5YY         0.01179  -0.01608   0.01848  -0.01167  -0.00878
  35        5ZZ         0.00266  -0.00336   0.01223   0.00738   0.00226
  36        5XY        -0.00206  -0.00024  -0.00130   0.00005   0.00019
  37        5XZ         0.01683   0.00542  -0.00830  -0.00379  -0.00037
  38        5YZ         0.00145  -0.00005   0.00036  -0.00165   0.00044
  39 3   C  1S          0.03729  -0.02148  -0.10075   0.07601   0.08645
  40        2S         -0.05030   0.01326   0.10206  -0.04291  -0.05894
  41        2PX        -0.02030  -0.04593  -0.06343   0.13740  -0.04116
  42        2PY        -0.01808  -0.01159  -0.01852   0.01760  -0.01467
  43        2PZ        -0.23799  -0.01740  -0.01120  -0.06415   0.13003
  44        3S         -0.47916   0.42552   2.07547  -1.83808  -2.04415
  45        3PX         0.08176  -0.04653  -0.02253   1.20499  -0.00160
  46        3PY        -0.10352  -0.01513  -0.12509   0.12554  -0.05047
  47        3PZ        -1.29855   0.03200   0.04125  -1.13570   0.59859
  48        4S         -0.11028  -3.13398   0.42162  -6.73993  -0.94412
  49        4PX        -0.38136   0.29272  -0.11040   2.07422   0.68308
  50        4PY        -0.03704   0.12591  -0.04987   0.10605  -0.03515
  51        4PZ         0.00821  -1.80541  -0.34212  -0.73527   0.46382
  52        5XX         0.00660  -0.00359   0.00155  -0.00774   0.00290
  53        5YY        -0.01759  -0.01074   0.00858  -0.00502   0.00394
  54        5ZZ         0.00740   0.00234  -0.00624   0.00702  -0.00777
  55        5XY         0.00125  -0.00007  -0.00172   0.00040   0.00125
  56        5XZ        -0.00627   0.00999   0.00950  -0.02099   0.00133
  57        5YZ        -0.00232  -0.00016  -0.00109  -0.00017   0.00001
  58 4   H  1S          0.02435   0.00942  -0.00710  -0.06664   0.03121
  59        2S          0.61580   0.02612  -1.13035  -0.66705   1.52640
  60 5   H  1S         -0.05256  -0.01809  -0.01470  -0.02524   0.04951
  61        2S         -1.15496   0.20070  -1.55868   0.33890   1.71784
  62 6   H  1S         -0.03626  -0.01161  -0.00381  -0.03504   0.04776
  63        2S         -0.93081   0.19925  -1.28064   0.20163   1.86459
  64 7   C  1S          0.03729   0.02148  -0.10075  -0.07601  -0.08645
  65        2S         -0.05030  -0.01326   0.10206   0.04291   0.05894
  66        2PX         0.02031  -0.04593   0.06343   0.13740  -0.04116
  67        2PY        -0.01807   0.01159  -0.01852  -0.01760   0.01467
  68        2PZ        -0.23799   0.01740  -0.01120   0.06415  -0.13003
  69        3S         -0.47916  -0.42552   2.07546   1.83809   2.04415
  70        3PX        -0.08174  -0.04654   0.02255   1.20499  -0.00160
  71        3PY        -0.10348   0.01513  -0.12509  -0.12553   0.05048
  72        3PZ        -1.29856  -0.03200   0.04124   1.13570  -0.59859
  73        4S         -0.11024   3.13398   0.42158   6.73993   0.94412
  74        4PX         0.38138   0.29272   0.11039   2.07422   0.68308
  75        4PY        -0.03701  -0.12592  -0.04986  -0.10604   0.03515
  76        4PZ         0.00821   1.80541  -0.34213   0.73527  -0.46382
  77        5XX         0.00660   0.00359   0.00155   0.00774  -0.00290
  78        5YY        -0.01759   0.01074   0.00858   0.00502  -0.00394
  79        5ZZ         0.00740  -0.00234  -0.00624  -0.00702   0.00777
  80        5XY        -0.00125  -0.00007   0.00172   0.00040   0.00125
  81        5XZ         0.00627   0.00999  -0.00950  -0.02099   0.00133
  82        5YZ        -0.00232   0.00016  -0.00109   0.00017  -0.00001
  83 8   H  1S         -0.03626   0.01162  -0.00381   0.03504  -0.04776
  84        2S         -0.93086  -0.19924  -1.28064  -0.20164  -1.86460
  85 9   H  1S         -0.05256   0.01809  -0.01470   0.02524  -0.04951
  86        2S         -1.15493  -0.20070  -1.55869  -0.33890  -1.71783
  87 10  H  1S          0.02435  -0.00942  -0.00710   0.06664  -0.03121
  88        2S          0.61581  -0.02612  -1.13033   0.66705  -1.52641
                          41        42        43        44        45
                           V         V         V         V         V
     Eigenvalues --     0.00000   0.00000   0.00000   0.00000   0.00000
   1 1   N  1S         -0.01512  -0.09225   0.00457  -0.00430   0.01755
   2        2S         -0.03363   0.12711   0.01368   0.01727  -0.14699
   3        2PX        -0.08841   0.36769   0.04757  -0.02466   0.08234
   4        2PY        -0.01660  -0.00109  -0.01089  -0.08293  -0.01490
   5        2PZ         0.01596   0.03979   0.00676  -0.01324   0.10264
   6        3S          0.52311   2.70544  -0.02911  -0.04310   0.55356
   7        3PX        -0.21800   2.69722   0.12432   0.00002  -0.15151
[...]
      6  0.371663D+00
      7  0.882590D-03  0.371663D+00
      8  0.449722D-03  0.303578D-02  0.377051D+00
      9 -0.507479D-04  0.361802D-02  0.370080D-02  0.388114D+00
     10 -0.508220D-02 -0.800724D-02 -0.166389D-01  0.943143D-02  0.506564D+00
     11 -0.800724D-02 -0.508223D-02 -0.112205D-01 -0.213677D-03  0.184282D+00
     12 -0.588353D-02  0.844536D-03  0.116652D-02 -0.209820D-05 -0.168095D-01
     13 -0.707650D-02  0.343508D-03 -0.920780D-03 -0.329650D-03  0.163635D-01
     14  0.153507D-02 -0.338343D-03  0.291877D-03 -0.769524D-04  0.730740D-02
     15 -0.463543D-02 -0.310068D-03 -0.373465D-03  0.226314D-03 -0.601896D-02
     16  0.870809D-02 -0.678512D-03 -0.262279D-03  0.179329D-03 -0.264005D-02
     17  0.754749D-02  0.106137D-03  0.105652D-03  0.236520D-04  0.892413D-03
     18 -0.338342D-03  0.153508D-02 -0.612292D-02 -0.517377D-02 -0.478032D-03
     19  0.343509D-03 -0.707651D-02 -0.124781D-02 -0.591931D-02  0.178978D-02
     20  0.844533D-03 -0.588354D-02 -0.505430D-02  0.150163D-02  0.228042D-01
     21  0.106137D-03  0.754749D-02  0.704208D-02 -0.364827D-02  0.476513D-02
     22 -0.678512D-03  0.870810D-02 -0.429008D-02  0.638170D-02 -0.130119D-01
     23 -0.310067D-03 -0.463544D-02  0.960319D-02  0.759273D-02 -0.166888D-01
     24  0.263288D-02 -0.263289D-02  0.196182D-02 -0.157557D-03  0.651372D-04
     25  0.196941D-03  0.964364D-03 -0.611707D-02  0.617646D-02  0.190591D-02
     26  0.330145D-03  0.684425D-02 -0.231920D-02 -0.635305D-02  0.894046D-02
     27  0.700070D-03 -0.688032D-02  0.549511D-02  0.480457D-03  0.424927D-02
     28  0.688032D-02 -0.700068D-03  0.113307D-02 -0.491284D-04 -0.475933D-02
     29 -0.684425D-02 -0.330143D-03  0.886161D-03  0.334579D-04 -0.134236D-01
     30 -0.964364D-03 -0.196941D-03  0.589835D-03 -0.221023D-03  0.436877D-02
               11            12            13            14            15 
     11  0.506564D+00
     12  0.228042D-01  0.149579D+00
     13  0.178977D-02 -0.316934D-01  0.134612D+00
     14 -0.478023D-03 -0.289925D-01 -0.227880D-01  0.128512D+00
     15 -0.166888D-01 -0.445279D-01 -0.415491D-01  0.135268D-03  0.830293D-01
     16 -0.130119D-01 -0.437051D-01 -0.109642D-03 -0.386197D-01  0.242345D-02
     17  0.476512D-02 -0.832057D-03 -0.415740D-01 -0.405422D-01  0.280328D-02
     18  0.730745D-02 -0.131882D-02  0.511900D-02 -0.952901D-03 -0.980842D-03
     19  0.163634D-01 -0.284793D-02  0.146193D-02  0.511899D-02 -0.165929D-02
     20 -0.168095D-01  0.320578D-02 -0.284794D-02 -0.131881D-02  0.472689D-03
     21  0.892422D-03  0.506952D-03 -0.122125D-02 -0.130804D-02  0.447941D-03
     22 -0.264005D-02  0.100504D-03 -0.103782D-02 -0.699219D-03  0.317352D-03
     23 -0.601895D-02  0.472689D-03 -0.165929D-02 -0.980839D-03  0.149415D-02
     24 -0.648818D-04 -0.621443D-03 -0.181262D-01  0.198097D-01  0.277225D-02
     25 -0.436878D-02  0.813938D-03  0.565823D-03 -0.172576D-02 -0.346108D-03
     26  0.134236D-01 -0.146441D-02  0.368546D-02 -0.525073D-03 -0.162966D-02
     27  0.475930D-02 -0.482938D-03  0.653919D-03  0.437100D-03 -0.462268D-03
     28 -0.424926D-02 -0.901106D-03 -0.203837D-01  0.198395D-01 -0.231198D-01
     29 -0.894045D-02  0.226814D-01 -0.125629D-01 -0.123193D-01  0.257065D-01
     30 -0.190591D-02 -0.212711D-01  0.114068D-01  0.118312D-01  0.457586D-03
               16            17            18            19            20 
     16  0.805418D-01
     17  0.299399D-02  0.771805D-01
     18 -0.699222D-03 -0.130805D-02  0.128512D+00
     19 -0.103782D-02 -0.122125D-02 -0.227880D-01  0.134612D+00
     20  0.100505D-03  0.506953D-03 -0.289925D-01 -0.316934D-01  0.149579D+00
     21  0.308107D-03  0.131182D-02 -0.405422D-01 -0.415740D-01 -0.832059D-03
     22  0.109240D-02  0.308105D-03 -0.386197D-01 -0.109643D-03 -0.437051D-01
     23  0.317349D-03  0.447944D-03  0.135269D-03 -0.415491D-01 -0.445279D-01
     24 -0.198332D-02 -0.169892D-02 -0.198097D-01  0.181262D-01  0.621430D-03
     25  0.871278D-03 -0.127833D-03 -0.118312D-01 -0.114068D-01  0.212711D-01
     26  0.428986D-04 -0.229495D-03  0.123193D-01  0.125629D-01 -0.226814D-01
     27 -0.114566D-03 -0.703167D-04 -0.198395D-01  0.203838D-01  0.901069D-03
     28  0.250207D-01  0.308633D-03 -0.437102D-03 -0.653918D-03  0.482943D-03
     29 -0.463608D-03 -0.213719D-01  0.525071D-03 -0.368545D-02  0.146441D-02
     30 -0.243916D-01  0.198681D-01  0.172577D-02 -0.565822D-03 -0.813937D-03
               21            22            23            24            25 
     21  0.771806D-01
     22  0.299398D-02  0.805419D-01
     23  0.280328D-02  0.242345D-02  0.830294D-01
     24  0.169891D-02  0.198332D-02 -0.277226D-02  0.753011D-01
     25 -0.198681D-01  0.243916D-01 -0.457587D-03 -0.190164D-02  0.259052D-01
     26  0.213719D-01  0.463610D-03 -0.257065D-01 -0.129548D-02 -0.160904D-01
     27 -0.308635D-03 -0.250207D-01  0.231198D-01  0.641465D-02 -0.957724D-02
     28  0.703146D-04  0.114565D-03  0.462267D-03  0.641463D-02 -0.967574D-03
     29  0.229489D-03 -0.428988D-04  0.162966D-02 -0.129551D-02 -0.530441D-03
     30  0.127829D-03 -0.871280D-03  0.346108D-03 -0.190164D-02 -0.153857D-02
               26            27            28            29            30 
     26  0.289957D-01
     27 -0.100020D-01  0.311420D-01
     28 -0.164633D-02 -0.114947D-02  0.311420D-01
     29 -0.242666D-02 -0.164633D-02 -0.100020D-01  0.289957D-01
     30 -0.530443D-03 -0.967575D-03 -0.957723D-02 -0.160904D-01  0.259052D-01
 Leave Link  716 at Mon Jan  5 13:42:07 2026, MaxMem=   671088640 cpu:         0.2
 (Enter /home/huangdeqing/softwares/g09-D01/g09/l103.exe)

 GradGradGradGradGradGradGradGradGradGradGradGradGradGradGradGradGradGrad
 Berny optimization.
 Red2BG is reusing G-inverse.
 Internal  Forces:  Max     0.000009620 RMS     0.000002773
 Search for a local minimum.
 Step number   1 out of a maximum of    2
 All quantities printed in internal units (Hartrees-Bohrs-Radians)
 Swapping is turned off.
 Second derivative matrix not updated -- analytic derivatives used.
 ITU=  0
     Eigenvalues ---   -0.00034   0.00550   0.09560   0.09799   0.09888
     Eigenvalues ---    0.09924   0.14868   0.15140   0.16952   0.17615
     Eigenvalues ---    0.17700   0.20320   0.26169   0.32780   0.37095
     Eigenvalues ---    0.37239   0.37408   0.37743   0.38668   0.39255
     Eigenvalues ---    0.40729   0.57426   0.921731000.000001000.00000
     Eigenvalues --- 1000.000001000.000001000.000001000.000001000.00000
 Eigenvalue     1 is  -3.42D-04 should be greater than     0.000000 Eigenvector:
                          D7        D2        D6        D3        D5
   1                    0.42219   0.42219   0.41587   0.41587   0.38047
                          D4        A5        A9        A10       A4
   1                    0.38047  -0.04420   0.04420  -0.04193   0.04193
 Angle between quadratic step and forces=  56.40 degrees.
 Linear search not attempted -- option 19 set.
 Iteration  1 RMS(Cart)=  0.00002107 RMS(Int)=  0.00000000
 Iteration  2 RMS(Cart)=  0.00000000 RMS(Int)=  0.00000000
 Iteration  1 RMS(Cart)=  0.00000000 RMS(Int)=  0.00000000
 ITry= 1 IFail=0 DXMaxC= 5.63D-05 DCOld= 1.00D+10 DXMaxT= 5.00D-02 DXLimC= 3.00D+00 Rises=F
 Variable       Old X    -DE/DX   Delta X   Delta X   Delta X     New X
                                 (Linear)    (Quad)   (Total)
    R1        2.34302   0.00000   0.00000   0.00000   0.00000   2.34302
    R2        2.76933   0.00000   0.00000   0.00001   0.00001   2.76934
    R3        2.76933   0.00000   0.00000   0.00001   0.00001   2.76934
    R4        2.04039   0.00000   0.00000   0.00000   0.00000   2.04039
    R5        2.04805   0.00000   0.00000   0.00000   0.00000   2.04805
    R6        2.05240   0.00000   0.00000   0.00000   0.00000   2.05240
    R7        2.05240   0.00000   0.00000   0.00000   0.00000   2.05240
    R8        2.04805   0.00000   0.00000   0.00000   0.00000   2.04805
    R9        2.04039   0.00000   0.00000   0.00000   0.00000   2.04039
    A1        2.10155  -0.00001   0.00000  -0.00001  -0.00001   2.10154
    A2        2.10155  -0.00001   0.00000  -0.00001  -0.00001   2.10154
    A3        1.87278   0.00000   0.00000  -0.00001  -0.00001   1.87277
    A4        1.96135   0.00000   0.00000   0.00001   0.00001   1.96136
    A5        1.92941   0.00000   0.00000  -0.00001  -0.00001   1.92939
    A6        1.89895   0.00000   0.00000   0.00001   0.00001   1.89896
    A7        1.90037   0.00000   0.00000  -0.00001  -0.00001   1.90036
    A8        1.89983   0.00000   0.00000   0.00001   0.00001   1.89984
    A9        1.92941   0.00000   0.00000  -0.00001  -0.00001   1.92939
   A10        1.96135   0.00000   0.00000   0.00001   0.00001   1.96136
   A11        1.87278   0.00000   0.00000  -0.00001  -0.00001   1.87277
   A12        1.89983   0.00000   0.00000   0.00001   0.00001   1.89984
   A13        1.90037   0.00000   0.00000  -0.00001  -0.00001   1.90036
   A14        1.89895   0.00000   0.00000   0.00001   0.00001   1.89896
    D1        0.00000   0.00000   0.00000   0.00000   0.00000   0.00000
    D2       -1.13259   0.00000   0.00000  -0.00003  -0.00003  -1.13262
    D3        0.99386   0.00000   0.00000  -0.00002  -0.00002   0.99384
    D4        3.08054   0.00000   0.00000   0.00000   0.00000   3.08054
    D5       -3.08054   0.00000   0.00000   0.00000   0.00000  -3.08055
    D6       -0.99386   0.00000   0.00000   0.00001   0.00001  -0.99384
    D7        1.13259   0.00000   0.00000   0.00002   0.00002   1.13262
         Item               Value     Threshold  Converged?
 Maximum Force            0.000010     0.000015     YES
 RMS     Force            0.000003     0.000010     YES
 Maximum Displacement     0.000056     0.000060     YES
 RMS     Displacement     0.000021     0.000040     YES
 Predicted change in Energy=-2.801686D-10
 Optimization completed.
    -- Stationary point found.
                           ----------------------------
                           !   Optimized Parameters   !
                           ! (Angstroms and Degrees)  !
 --------------------------                            --------------------------
 ! Name  Definition              Value          Derivative Info.                !
 --------------------------------------------------------------------------------
 ! R1    R(1,2)                  1.2399         -DE/DX =    0.0                 !
 ! R2    R(1,7)                  1.4655         -DE/DX =    0.0                 !
 ! R3    R(2,3)                  1.4655         -DE/DX =    0.0                 !
 ! R4    R(3,4)                  1.0797         -DE/DX =    0.0                 !
 ! R5    R(3,5)                  1.0838         -DE/DX =    0.0                 !
 ! R6    R(3,6)                  1.0861         -DE/DX =    0.0                 !
 ! R7    R(7,8)                  1.0861         -DE/DX =    0.0                 !
 ! R8    R(7,9)                  1.0838         -DE/DX =    0.0                 !
 ! R9    R(7,10)                 1.0797         -DE/DX =    0.0                 !
 ! A1    A(2,1,7)              120.4102         -DE/DX =    0.0                 !
 ! A2    A(1,2,3)              120.4102         -DE/DX =    0.0                 !
 ! A3    A(2,3,4)              107.3025         -DE/DX =    0.0                 !
 ! A4    A(2,3,5)              112.3771         -DE/DX =    0.0                 !
 ! A5    A(2,3,6)              110.5468         -DE/DX =    0.0                 !
 ! A6    A(4,3,5)              108.8016         -DE/DX =    0.0                 !
 ! A7    A(4,3,6)              108.8833         -DE/DX =    0.0                 !
 ! A8    A(5,3,6)              108.8525         -DE/DX =    0.0                 !
 ! A9    A(1,7,8)              110.5468         -DE/DX =    0.0                 !
 ! A10   A(1,7,9)              112.3771         -DE/DX =    0.0                 !
 ! A11   A(1,7,10)             107.3025         -DE/DX =    0.0                 !
 ! A12   A(8,7,9)              108.8525         -DE/DX =    0.0                 !
 ! A13   A(8,7,10)             108.8833         -DE/DX =    0.0                 !
 ! A14   A(9,7,10)             108.8016         -DE/DX =    0.0                 !
 ! D1    D(7,1,2,3)              0.0001         -DE/DX =    0.0                 !
 ! D2    D(2,1,7,8)            -64.8929         -DE/DX =    0.0                 !
 ! D3    D(2,1,7,9)             56.9438         -DE/DX =    0.0                 !
 ! D4    D(2,1,7,10)           176.502          -DE/DX =    0.0                 !
 ! D5    D(1,2,3,4)           -176.5021         -DE/DX =    0.0                 !
 ! D6    D(1,2,3,5)            -56.9439         -DE/DX =    0.0                 !
 ! D7    D(1,2,3,6)             64.8928         -DE/DX =    0.0                 !
 --------------------------------------------------------------------------------
 GradGradGradGradGradGradGradGradGradGradGradGradGradGradGradGradGradGrad

 Leave Link  103 at Mon Jan  5 13:42:07 2026, MaxMem=   671088640 cpu:         0.0
 (Enter /home/huangdeqing/softwares/g09-D01/g09/l9999.exe)
 1\1\GINC-LOCALHOST\Freq\CASSCF\6-31+G(d)\C2H6N2\HUANGDEQING\05-Jan-202
 6\0\\#P Geom=AllCheck Guess=TCheck SCRF=Check GenChk CASSCF/6-31+G(d) 
 Freq\\S0_cis_nn_+40\\0,1\N,-0.6021770259,0.0427789825,1.285311968\N,0.
 6376976968,0.0427807822,1.2853115947\C,1.3794984056,-0.0018765176,0.02
 22454955\H,2.4294394393,-0.0561127896,0.2682062154\H,1.1169120375,-0.8
 636577718,-0.5802153433\H,1.2002920328,0.8991145594,-0.5571272384\C,-1
 .3439784142,-0.00188284,0.0222464373\H,-1.1647762445,0.8991081692,-0.5
 571277228\H,-1.0813887948,-0.8636638291,-0.5802133429\H,-2.3939190526,
 -0.0561231653,0.2682079365\\Version=ES64L-G09RevD.01\HF=-188.0971205\R
 MSD=0.000e+00\RMSF=1.898e-04\ZeroPoint=0.0902158\Thermal=0.0944558\PG=
 C01 [X(C2H6N2)]\NImag=1\\0.86878862,0.00047957,0.09996845,0.02853601,0
 .01226974,0.36885930,-0.68752649,-0.00115189,-0.04580788,0.86878857,0.
 00115005,-0.07228407,-0.00282589,-0.00047700,0.09996844,0.04580825,-0.
 00282584,-0.11639181,-0.02853635,0.01226942,0.36885935,-0.04503425,0.0
 0177483,0.04938873,-0.12494891,0.00129640,0.01885255,0.66333807,0.0008
 1690,0.03954336,-0.00083997,0.00238147,-0.07474261,-0.00843656,-0.0012
 1550,0.62444745,0.01816722,-0.00043583,0.00592857,0.05491330,-0.006636
 66,-0.20753911,0.07010567,0.00549757,0.55099697,-0.00169167,0.00015227
 ,0.00531918,-0.02035960,0.00024743,-0.00431457,-0.33927728,0.01403860,
 -0.07080878,0.36951762,0.00023542,0.00144407,-0.00064296,0.00040365,-0
 .00042060,0.00076942,0.01460450,-0.06353960,0.00295771,-0.01551232,0.0
 5805116,0.00550069,0.00010012,-0.00747853,0.04465929,-0.00224880,0.006
 68915,-0.08434756,0.00368995,-0.07741267,0.07333104,-0.00332283,0.0862
 4116,0.00001969,-0.00387161,0.00030231,0.00709435,0.01905266,0.0121636
 8,-0.08208000,-0.06013522,-0.03888905,-0.00653199,-0.03101028,-0.01907
 157,0.08375616,-0.00036057,0.00047396,-0.00064164,0.00235927,0.0024127
 9,-0.00038303,-0.05826868,-0.24364777,-0.12568810,-0.00009428,0.003901
 21,0.00259310,0.06642253,0.25872377,-0.00256571,0.00475321,-0.00024620
 ,-0.00501399,-0.02263647,-0.02569615,-0.03714073,-0.12839912,-0.143452
 60,-0.00270650,-0.00732020,-0.00361295,0.04165186,0.14050118,0.1539079
 5,-0.00042822,0.00388472,0.00070046,0.00408656,-0.01932895,0.01173709,
 -0.06914304,0.04317117,-0.02526766,-0.00253368,0.03159405,-0.01826667,
 0.00207915,-0.00850917,0.00538875,0.06753534,0.00037309,0.00041140,0.0
 0058138,-0.00245039,0.00319328,0.00014988,0.04189989,-0.25482341,0.123
 37498,0.00095480,0.00008264,-0.00062037,0.00619775,-0.02278898,0.01680
 227,-0.04762116,0.27326834,-0.00252730,-0.00548486,-0.00079470,-0.0016
 3949,0.02314593,-0.02333061,-0.02425925,0.12684565,-0.13364726,-0.0018
 5832,0.00756119,-0.00367936,0.00382717,-0.01727380,0.01469236,0.025489
 87,-0.13952363,0.14353834,-0.12494896,-0.00129666,-0.01885258,-0.04503
 428,-0.00177517,-0.04938870,-0.00160584,0.00101770,-0.00535361,0.00056
 645,-0.00015399,-0.00150084,-0.00154622,-0.00142435,-0.00040937,-0.000
 26898,0.00065219,-0.00013677,0.66333802,-0.00238185,-0.07474265,-0.008
 43682,-0.00081715,0.03954335,-0.00084006,-0.00101758,-0.02683705,0.001
 16567,0.00009182,-0.00073933,-0.00035465,0.00365614,-0.00002118,-0.004
 78690,-0.00367283,0.00036014,0.00561827,0.00121547,0.62444749,-0.05491
 332,-0.00663698,-0.20753905,-0.01816719,-0.00043599,0.00592862,0.00535
 361,0.00116576,0.00247676,0.00094320,-0.00014359,-0.00168757,0.0008743
 9,0.00012174,0.00249448,0.00104951,-0.00021347,0.00184242,-0.07010577,
 0.00549716,0.55099708,0.00408649,0.01932896,-0.01173712,-0.00042821,-0
 .00388474,-0.00070046,-0.00026899,0.00367283,-0.00104950,0.00019082,-0
 .00011468,-0.00007586,-0.00024667,-0.00006566,0.00094799,-0.00127130,-
 0.00030185,-0.00004078,-0.06914267,-0.04317025,0.02526714,0.06753491,0
 .00245041,0.00319340,0.00014980,-0.00037309,0.00041137,0.00058138,-0.0
 0065220,0.00036016,-0.00021347,0.00008856,0.00034726,-0.00055910,-0.00
 038425,-0.00080312,0.00032418,0.00030184,0.00075244,-0.00031612,-0.041
 89898,-0.25482339,0.12337524,0.04762015,0.27326833,0.00163940,0.023145
 89,-0.02333063,0.00252730,-0.00548485,-0.00079472,0.00013675,0.0056182
 7,0.00184243,-0.00000151,-0.00027805,0.00014583,-0.00114334,-0.0002945
 8,0.00116133,0.00004078,-0.00031612,0.00007165,0.02425872,0.12684593,-
 0.13364767,-0.02548930,-0.13952394,0.14353878,0.00709441,-0.01905267,-
 0.01216369,0.00001969,0.00387160,-0.00030231,-0.00154620,-0.00365615,-
 0.00087439,0.00026027,-0.00002363,-0.00025028,-0.00280476,-0.00004868,
 -0.00003428,-0.00024667,0.00038425,0.00114334,-0.08208046,0.06013589,0
 .03888947,0.00207914,-0.00619764,-0.00382708,0.08375669,-0.00235923,0.
 00241268,-0.00038310,0.00036057,0.00047399,-0.00064164,0.00142434,-0.0
 0002120,0.00012173,0.00001040,0.00047690,0.00066713,0.00004865,0.00127
 241,0.00039800,0.00006566,-0.00080312,-0.00029457,0.05826934,-0.243647
 66,-0.12568785,0.00850926,-0.02278897,-0.01727377,-0.06642324,0.258723
 63,0.00501404,-0.02263647,-0.02569612,0.00256571,0.00475321,-0.0002462
 0,0.00040938,-0.00478690,0.00249447,0.00011802,0.00036386,0.00016852,0
 .00003428,0.00039800,0.00058325,-0.00094799,0.00032417,0.00116133,0.03
 714116,-0.12839887,-0.14345228,-0.00538883,0.01680232,0.01469237,-0.04
 165231,0.14050090,0.15390762,-0.02035962,-0.00024751,0.00431459,-0.001
 69168,-0.00015229,-0.00531918,0.00056645,-0.00009181,-0.00094320,-0.00
 014095,-0.00002272,0.00002177,0.00026027,-0.00001040,-0.00011802,0.000
 19082,-0.00008856,0.00000151,-0.33927707,-0.01403966,0.07080896,-0.002
 53352,-0.00095481,0.00185829,-0.00653210,0.00009424,0.00270653,0.36951
 740,-0.00040379,-0.00042060,0.00076945,-0.00023544,0.00144407,-0.00064
 299,0.00015399,-0.00073933,-0.00014360,0.00002272,0.00039627,0.0000554
 4,0.00002363,0.00047690,0.00036386,0.00011468,0.00034727,-0.00027805,-
 0.01460554,-0.06353973,0.00295799,-0.03159404,0.00008251,0.00756122,0.
 03101027,0.00390134,-0.00732022,0.01551352,0.05805130,-0.04465928,-0.0
 0224898,0.00668917,-0.00550069,0.00010010,-0.00747852,0.00150084,-0.00
 035465,-0.00168757,-0.00002177,0.00005544,0.00062642,0.00025028,0.0006
 6713,0.00016852,0.00007587,-0.00055910,0.00014583,0.08434774,0.0036902
 9,-0.07741280,0.01826673,-0.00062029,-0.00367938,0.01907152,0.00259317
 ,-0.00361296,-0.07333124,-0.00332312,0.08624129\\0.00000004,-0.0004471
 4,0.00001093,-0.00000004,-0.00044740,0.00001095,0.00000147,0.00002748,
 0.00000294,0.00000115,-0.00006892,-0.00002354,0.00000068,0.00024897,-0
 .00032253,-0.00000035,0.00023981,0.00033219,-0.00000148,0.00002736,0.0
 0000294,0.00000035,0.00023981,0.00033219,-0.00000068,0.00024897,-0.000
 32253,-0.00000115,-0.00006892,-0.00002354\\\@


 HE WHO LOVES TO READ, AND KNOWS HOW TO REFLECT,
 HAS LAID BY A PERPETUAL FEAST FOR HIS OLD AGE.
 -- UNCLE ESEK, "SCRIBNER'S MONTHLY", SEPT. 1880
 Job cpu time:       0 days  0 hours  1 minutes 33.7 seconds.
 File lengths (MBytes):  RWF=     85 Int=      0 D2E=      0 Chk=      2 Scr=      1
 Normal termination of Gaussian 09 at Mon Jan  5 13:42:07 2026.
